
.Version 6.8.1  of ABINIT 
.(MPI version, prepared for a x86_64_linux_intel11.1 computer) 

.Copyright (C) 1998-2011 ABINIT group . 
 ABINIT comes with ABSOLUTELY NO WARRANTY.
 It is free software, and you are welcome to redistribute it
 under certain conditions (GNU General Public License,
 see ~abinit/COPYING or http://www.gnu.org/copyleft/gpl.txt).

 ABINIT is a project of the Universite Catholique de Louvain,
 Corning Inc. and other collaborators, see ~abinit/doc/developers/contributors.txt .
 Please read ~abinit/doc/users/acknowledgments.html for suggested
 acknowledgments of the ABINIT effort.
 For more information, see http://www.abinit.org .

.Starting date : Thu 11 Aug 2011.
- ( at 13h38 )
  
- input  file    -> abinit.in
- output file    -> abinit.out
- root for input  files -> abinit.in
- root for output files -> abinit.out


 DATASET    1 : the unit cell is not primitive
================================================================================
 Values of the parameters that define the memory need for DATASET  1.
   intxc =         0  ionmov =         0    iscf =         7 xclevel =         2
  lmnmax =         4   lnmax =         4   mband =        24  mffmem =         1
P  mgfft =        54   mkmem =         1 mpssoang=         4     mpw =      9348
  mqgrid =      3001   natom =         8    nfft =    157464    nkpt =         8
  nloalg =         4  nspden =         1 nspinor =         1  nsppol =         1
    nsym =        24  n1xccc =         0  ntypat =         1  occopt =         1
================================================================================
P This job should need less than                      52.269 Mbytes of memory.
  Rough estimation (10% accuracy) of disk space for files :
  WF disk file :     27.389 Mbytes ; DEN or POT disk file :      1.203 Mbytes.
================================================================================

--------------------------------------------------------------------------------
------------- Echo of variables that govern the present computation ------------
--------------------------------------------------------------------------------
-
- outvars: echo of selected default values                                      
-   accesswff0 =  0 , fftalg0 =312 , wfoptalg0 =  0
-
- outvars: echo of global parameters not present in the input file              
-   nproc =   12
-
 -outvars: echo values of preprocessed input variables --------
            acell      1.0000000000E+00  1.0000000000E+00  1.0000000000E+00 Bohr
              amu      2.80855000E+01
           diemac      1.20000000E+01
             ecut      3.20000000E+01 Hartree
           istwfk        1    1    1    1    1    1    1    1
              ixc          11
           jdtset        1
              kpt      0.00000000E+00  0.00000000E+00  0.00000000E+00
                       5.00000000E-01  0.00000000E+00  0.00000000E+00
                       0.00000000E+00  5.00000000E-01  0.00000000E+00
                       5.00000000E-01  5.00000000E-01  0.00000000E+00
                       0.00000000E+00  0.00000000E+00  5.00000000E-01
                       5.00000000E-01  0.00000000E+00  5.00000000E-01
                       0.00000000E+00  5.00000000E-01  5.00000000E-01
                       5.00000000E-01  5.00000000E-01  5.00000000E-01
          kptrlen      2.05216683E+01
           kptopt           3
         kptrlatt      2  0  0   0  2  0   0  0  2
P           mkmem           1
            natom           8
            nband          24
           ndtset           1
            ngfft          54      54      54
             nkpt           8
            nstep         100
             nsym          24
           ntypat           1
              occ      2.000000  2.000000  2.000000  2.000000  2.000000  2.000000
                       2.000000  2.000000  2.000000  2.000000  2.000000  2.000000
                       2.000000  2.000000  2.000000  2.000000  0.000000  0.000000
                       0.000000  0.000000  0.000000  0.000000  0.000000  0.000000
            rprim      1.0260834173E+01  0.0000000000E+00  0.0000000000E+00
                       0.0000000000E+00  1.0260834173E+01  0.0000000000E+00
                       0.0000000000E+00  0.0000000000E+00  1.0260834173E+01
        symmorphi           0
           symrel      1  0  0   0  1  0   0  0  1      -1  0  0   0  1  0   0  0 -1
                      -1  0  0   0 -1  0   0  0  1       1  0  0   0 -1  0   0  0 -1
                       0  1  0   1  0  0   0  0  1       0 -1  0   1  0  0   0  0 -1
                       0 -1  0  -1  0  0   0  0  1       0  1  0  -1  0  0   0  0 -1
                       0  0  1   1  0  0   0  1  0       0  0 -1   1  0  0   0 -1  0
                       0  0 -1  -1  0  0   0  1  0       0  0  1  -1  0  0   0 -1  0
                       1  0  0   0  0  1   0  1  0      -1  0  0   0  0  1   0 -1  0
                      -1  0  0   0  0 -1   0  1  0       1  0  0   0  0 -1   0 -1  0
                       0  1  0   0  0  1   1  0  0       0 -1  0   0  0  1  -1  0  0
                       0 -1  0   0  0 -1   1  0  0       0  1  0   0  0 -1  -1  0  0
                       0  0  1   0  1  0   1  0  0       0  0 -1   0  1  0  -1  0  0
                       0  0 -1   0 -1  0   1  0  0       0  0  1   0 -1  0  -1  0  0
           toldfe      1.00000000E-09 Hartree
            typat      1  1  1  1  1  1  1  1
              wtk        0.12500    0.12500    0.12500    0.12500    0.12500    0.12500
                         0.12500    0.12500
           xangst      4.0723496890E+00  4.0723496890E+00  4.0723496890E+00
                       1.3574498963E+00  4.0723496890E+00  1.3574498963E+00
                       4.0723496890E+00  1.3574498963E+00  1.3574498963E+00
                       1.3574498963E+00  1.3574498963E+00  4.0723496890E+00
                       0.0000000000E+00  0.0000000000E+00  0.0000000000E+00
                       0.0000000000E+00  2.7148997927E+00  2.7148997927E+00
                       2.7148997927E+00  2.7148997927E+00  0.0000000000E+00
                       2.7148997927E+00  0.0000000000E+00  2.7148997927E+00
            xcart      7.6956256296E+00  7.6956256296E+00  7.6956256296E+00
                       2.5652085432E+00  7.6956256296E+00  2.5652085432E+00
                       7.6956256296E+00  2.5652085432E+00  2.5652085432E+00
                       2.5652085432E+00  2.5652085432E+00  7.6956256296E+00
                       0.0000000000E+00  0.0000000000E+00  0.0000000000E+00
                       0.0000000000E+00  5.1304170864E+00  5.1304170864E+00
                       5.1304170864E+00  5.1304170864E+00  0.0000000000E+00
                       5.1304170864E+00  0.0000000000E+00  5.1304170864E+00
             xred      7.5000000000E-01  7.5000000000E-01  7.5000000000E-01
                       2.5000000000E-01  7.5000000000E-01  2.5000000000E-01
                       7.5000000000E-01  2.5000000000E-01  2.5000000000E-01
                       2.5000000000E-01  2.5000000000E-01  7.5000000000E-01
                       0.0000000000E+00  0.0000000000E+00  0.0000000000E+00
                       0.0000000000E+00  5.0000000000E-01  5.0000000000E-01
                       5.0000000000E-01  5.0000000000E-01  0.0000000000E+00
                       5.0000000000E-01  0.0000000000E+00  5.0000000000E-01
            znucl       14.00000

================================================================================

 chkinp: Checking input parameters for consistency, jdtset=   1.

================================================================================
== DATASET  1 ==================================================================

 Exchange-correlation functional for the present dataset will be:
  GGA: Perdew-Burke-Ernzerhof functional - ixc=11
 Citation for XC functional:
  J.P.Perdew, K.Burke, M.Ernzerhof, PRL 77, 3865 (1996)
 
 Real(R)+Recip(G) space primitive vectors, cartesian coordinates (Bohr,Bohr^-1):
 R(1)= 10.2608342  0.0000000  0.0000000  G(1)=  0.0974580  0.0000000  0.0000000
 R(2)=  0.0000000 10.2608342  0.0000000  G(2)=  0.0000000  0.0974580  0.0000000
 R(3)=  0.0000000  0.0000000 10.2608342  G(3)=  0.0000000  0.0000000  0.0974580
 Unit cell volume ucvol=  1.0803090E+03 bohr^3
 Angles (23,13,12)=  9.00000000E+01  9.00000000E+01  9.00000000E+01 degrees

 getcut: wavevector=  0.0000  0.0000  0.0000  ngfft=  54  54  54
         ecut(hartree)=     32.000   => boxcut(ratio)=   2.06667

--- Pseudopotential description ------------------------------------------------
- pspini: atom type   1  psp file is 14-Si.GGA.fhi
- pspatm: opening atomic psp file    14-Si.GGA.fhi
 silicon, fhi98PP : Trouiller-Martins-type, GGA Perdew/Burke/Ernzerhof (1996), l= 2 local
- 14.00000   4.00000     21003                znucl, zion, pspdat
    6   11    3    3       495   0.00000      pspcod,pspxc,lmax,lloc,mmax,r2well
    0.00000000000000    0.00000000000000    0.00000000000000   rchrg,fchrg,qchrg
  1.024700          amesh (Hamman grid)
 pspatm: epsatm=    4.62379451
         --- l  ekb(1:nproj) -->
             0    2.719538
             1    1.202114
             2   -0.778565
 pspatm: atomic psp has been read  and splines computed

   1.18369140E+03                                ecore*ucvol(ha*bohr**3)
--------------------------------------------------------------------------------

P newkpt: treating     24 bands with npw=    9315 for ikpt=   1 by node    0
P newkpt: treating     24 bands with npw=    9322 for ikpt=   2 by node    1
P newkpt: treating     24 bands with npw=    9322 for ikpt=   3 by node    2
P newkpt: treating     24 bands with npw=    9348 for ikpt=   4 by node    3
P newkpt: treating     24 bands with npw=    9322 for ikpt=   5 by node    4
P newkpt: treating     24 bands with npw=    9348 for ikpt=   6 by node    5
P newkpt: treating     24 bands with npw=    9348 for ikpt=   7 by node    6
P newkpt: treating     24 bands with npw=    9328 for ikpt=   8 by node    7
 
 setup2: Arith. and geom. avg. npw (full set) are    9331.625    9331.616

================================================================================

     iter   Etot(hartree)      deltaE(h)  residm     vres2
 ETOT  1  -31.466016294568    -3.147E+01 9.217E-03 1.325E+02
 ETOT  2  -31.494443505339    -2.843E-02 3.052E-03 5.524E+00
 ETOT  3  -31.494945160505    -5.017E-04 4.015E-04 1.286E-01
 ETOT  4  -31.494955458599    -1.030E-05 8.469E-04 8.082E-03
 ETOT  5  -31.494956190339    -7.317E-07 1.173E-04 4.482E-04
 ETOT  6  -31.494956252464    -6.213E-08 5.890E-05 7.254E-06
 ETOT  7  -31.494956253449    -9.851E-10 8.017E-06 2.383E-08
 ETOT  8  -31.494956253451    -1.787E-12 1.949E-06 4.465E-10

 At SCF step    8, etot is converged : 
  for the second time, diff in etot=  1.787E-12 < toldfe=  1.000E-09

 Cartesian components of stress tensor (hartree/bohr^3)
  sigma(1 1)= -8.53242660E-05  sigma(3 2)=  0.00000000E+00
  sigma(2 2)= -8.53242660E-05  sigma(3 1)=  0.00000000E+00
  sigma(3 3)= -8.53242660E-05  sigma(2 1)=  0.00000000E+00
 
================================================================================

 ----iterations are completed or convergence reached----

 Mean square residual over all n,k,spin=   2.8698E-08; max=  1.9485E-06
   0.0000  0.0000  0.0000    1  3.38428E-10 kpt; spin; max resid(k); each band:
  1.05E-15 6.04E-16 5.97E-16 4.93E-15 5.04E-15 5.06E-15 5.05E-15 2.14E-16
  2.14E-16 2.14E-16 9.86E-16 1.01E-15 1.01E-15 1.03E-15 1.05E-15 1.15E-15
  1.20E-14 5.13E-15 2.38E-15 9.63E-15 8.20E-15 5.90E-15 2.10E-11 3.38E-10
   0.5000  0.0000  0.0000    1  1.73511E-10 kpt; spin; max resid(k); each band:
  3.15E-15 3.94E-15 1.31E-16 2.26E-15 2.88E-16 2.88E-16 2.45E-15 1.38E-16
  1.19E-15 1.19E-15 2.29E-15 3.39E-15 2.57E-16 2.57E-16 6.25E-16 6.25E-16
  3.43E-15 3.71E-15 1.58E-14 1.28E-14 6.49E-11 1.07E-10 1.27E-10 1.74E-10
   0.0000  0.5000  0.0000    1  3.42608E-10 kpt; spin; max resid(k); each band:
  3.15E-15 3.94E-15 1.31E-16 2.26E-15 2.88E-16 2.88E-16 2.45E-15 1.39E-16
  1.19E-15 1.19E-15 2.29E-15 3.39E-15 2.57E-16 2.57E-16 6.25E-16 6.25E-16
  3.44E-15 3.53E-15 1.44E-14 1.22E-14 1.21E-10 1.97E-10 3.43E-10 2.90E-10
   0.5000  0.5000  0.0000    1  3.73160E-07 kpt; spin; max resid(k); each band:
  2.19E-15 1.77E-15 1.77E-15 1.33E-15 3.65E-15 3.65E-15 2.89E-15 4.78E-15
  1.77E-15 1.59E-15 1.35E-15 1.35E-15 1.13E-15 7.26E-16 6.91E-16 6.89E-16
  3.81E-15 3.81E-15 6.08E-15 5.27E-15 4.20E-08 5.04E-08 1.90E-07 3.73E-07
   0.0000  0.0000  0.5000    1  1.10125E-09 kpt; spin; max resid(k); each band:
  3.15E-15 3.94E-15 1.31E-16 2.26E-15 2.88E-16 2.88E-16 2.44E-15 1.38E-16
  1.19E-15 1.19E-15 2.29E-15 3.39E-15 2.57E-16 2.57E-16 6.25E-16 6.25E-16
  3.46E-15 3.57E-15 1.49E-14 1.28E-14 1.91E-10 9.09E-11 1.10E-09 3.82E-10
   0.5000  0.0000  0.5000    1  1.70525E-06 kpt; spin; max resid(k); each band:
  2.20E-15 1.78E-15 1.78E-15 1.34E-15 3.65E-15 3.65E-15 2.89E-15 4.78E-15
  1.78E-15 1.59E-15 1.35E-15 1.35E-15 1.16E-15 7.32E-16 6.97E-16 7.47E-16
  3.82E-15 3.90E-15 6.50E-15 5.29E-15 5.82E-09 2.17E-07 1.71E-06 3.52E-07
   0.0000  0.5000  0.5000    1  1.94855E-06 kpt; spin; max resid(k); each band:
  2.20E-15 1.77E-15 1.77E-15 1.33E-15 3.65E-15 3.65E-15 2.89E-15 4.78E-15
  1.77E-15 1.59E-15 1.35E-15 1.35E-15 1.13E-15 7.24E-16 6.91E-16 6.84E-16
  3.81E-15 3.82E-15 6.36E-15 5.27E-15 1.73E-09 7.78E-08 5.42E-07 1.95E-06
   0.5000  0.5000  0.5000    1  2.56831E-14 kpt; spin; max resid(k); each band:
  2.01E-15 2.00E-15 2.00E-15 4.28E-16 1.08E-14 4.21E-15 4.14E-15 4.19E-15
  3.10E-16 5.72E-16 3.12E-16 3.35E-16 3.29E-16 5.06E-16 5.07E-16 5.03E-16
  2.57E-14 1.73E-14 1.76E-14 1.90E-14 1.08E-15 1.22E-15 9.59E-16 8.81E-16
 reduced coordinates (array xred) for    8 atoms
       0.750000000000      0.750000000000      0.750000000000
       0.250000000000      0.750000000000      0.250000000000
       0.750000000000      0.250000000000      0.250000000000
       0.250000000000      0.250000000000      0.750000000000
       0.000000000000      0.000000000000      0.000000000000
       0.000000000000      0.500000000000      0.500000000000
       0.500000000000      0.500000000000      0.000000000000
       0.500000000000      0.000000000000      0.500000000000
 rms dE/dt=  6.1678E-09; max dE/dt=  8.7226E-09; dE/dt below (all hartree)
    1      -0.000000008723     -0.000000008723     -0.000000008723
    2       0.000000008723     -0.000000008723      0.000000008723
    3      -0.000000008723      0.000000008723      0.000000008723
    4       0.000000008723      0.000000008723     -0.000000008723
    5       0.000000000000      0.000000000000      0.000000000000
    6       0.000000000000      0.000000000000      0.000000000000
    7       0.000000000000      0.000000000000      0.000000000000
    8       0.000000000000      0.000000000000      0.000000000000
 
 cartesian coordinates (angstrom) at end:
    1      4.07234968901977     4.07234968901977     4.07234968901977
    2      1.35744989633992     4.07234968901977     1.35744989633992
    3      4.07234968901977     1.35744989633992     1.35744989633992
    4      1.35744989633992     1.35744989633992     4.07234968901977
    5      0.00000000000000     0.00000000000000     0.00000000000000
    6      0.00000000000000     2.71489979267985     2.71489979267985
    7      2.71489979267985     2.71489979267985     0.00000000000000
    8      2.71489979267985     0.00000000000000     2.71489979267985

 cartesian forces (hartree/bohr) at end:
    1      0.00000000085009     0.00000000085009     0.00000000085009
    2     -0.00000000085009     0.00000000085009    -0.00000000085009
    3      0.00000000085009    -0.00000000085009    -0.00000000085009
    4     -0.00000000085009    -0.00000000085009     0.00000000085009
    5      0.00000000000000     0.00000000000000     0.00000000000000
    6      0.00000000000000     0.00000000000000     0.00000000000000
    7      0.00000000000000     0.00000000000000     0.00000000000000
    8      0.00000000000000     0.00000000000000     0.00000000000000
 frms,max,avg= 6.0110396E-10 8.5008938E-10   0.000E+00  0.000E+00  0.000E+00 h/b

 cartesian forces (eV/Angstrom) at end:
    1      0.00000004371335     0.00000004371335     0.00000004371335
    2     -0.00000004371335     0.00000004371335    -0.00000004371335
    3      0.00000004371335    -0.00000004371335    -0.00000004371335
    4     -0.00000004371335    -0.00000004371335     0.00000004371335
    5      0.00000000000000     0.00000000000000     0.00000000000000
    6      0.00000000000000     0.00000000000000     0.00000000000000
    7      0.00000000000000     0.00000000000000     0.00000000000000
    8      0.00000000000000     0.00000000000000     0.00000000000000
 frms,max,avg= 3.0910006E-08 4.3713350E-08   0.000E+00  0.000E+00  0.000E+00 e/A
 length scales=  1.000000000000  1.000000000000  1.000000000000 bohr
              =  0.529177208590  0.529177208590  0.529177208590 angstroms
 prteigrs : about to open file abinit.out_DS1_EIG
 Fermi (or HOMO) energy (hartree) =   0.19640   Average Vxc (hartree)=  -0.32860
 Eigenvalues (hartree) for nkpt=   8  k points:
 kpt#   1, nband= 24, wtk=  0.12500, kpt=  0.0000  0.0000  0.0000 (reduced coord)
  -0.24392  -0.09126  -0.09126  -0.09126  -0.09126  -0.09126  -0.09126   0.09124
   0.09124   0.09124   0.09124   0.09124   0.09124   0.19640   0.19640   0.19640
   0.22195   0.22195   0.22195   0.22195   0.22195   0.22195   0.29024   0.29024
 kpt#   2, nband= 24, wtk=  0.12500, kpt=  0.5000  0.0000  0.0000 (reduced coord)
  -0.20406  -0.20406  -0.08520  -0.08520  -0.08520  -0.08520   0.05436   0.05436
   0.05436   0.05436   0.06691   0.06691   0.12670   0.12670   0.12670   0.12670
   0.23745   0.23745   0.31081   0.31081   0.35313   0.35313   0.35313   0.35313
 kpt#   3, nband= 24, wtk=  0.12500, kpt=  0.0000  0.5000  0.0000 (reduced coord)
  -0.20406  -0.20406  -0.08520  -0.08520  -0.08520  -0.08520   0.05436   0.05436
   0.05436   0.05436   0.06691   0.06691   0.12670   0.12670   0.12670   0.12670
   0.23745   0.23745   0.31081   0.31081   0.35313   0.35313   0.35313   0.35313
 kpt#   4, nband= 24, wtk=  0.12500, kpt=  0.5000  0.5000  0.0000 (reduced coord)
  -0.16861  -0.16861  -0.16861  -0.16861  -0.00532  -0.00532  -0.00532  -0.00532
   0.05806   0.05806   0.05806   0.05806   0.14744   0.14744   0.14744   0.14744
   0.28570   0.28570   0.28570   0.28570   0.37202   0.37202   0.37202   0.37202
 kpt#   5, nband= 24, wtk=  0.12500, kpt=  0.0000  0.0000  0.5000 (reduced coord)
  -0.20406  -0.20406  -0.08520  -0.08520  -0.08520  -0.08520   0.05436   0.05436
   0.05436   0.05436   0.06691   0.06691   0.12670   0.12670   0.12670   0.12670
   0.23745   0.23745   0.31081   0.31081   0.35313   0.35313   0.35313   0.35313
 kpt#   6, nband= 24, wtk=  0.12500, kpt=  0.5000  0.0000  0.5000 (reduced coord)
  -0.16861  -0.16861  -0.16861  -0.16861  -0.00532  -0.00532  -0.00532  -0.00532
   0.05806   0.05806   0.05806   0.05806   0.14744   0.14744   0.14744   0.14744
   0.28570   0.28570   0.28570   0.28570   0.37202   0.37202   0.37202   0.37202
 kpt#   7, nband= 24, wtk=  0.12500, kpt=  0.0000  0.5000  0.5000 (reduced coord)
  -0.16861  -0.16861  -0.16861  -0.16861  -0.00532  -0.00532  -0.00532  -0.00532
   0.05806   0.05806   0.05806   0.05806   0.14744   0.14744   0.14744   0.14744
   0.28570   0.28570   0.28570   0.28570   0.37202   0.37202   0.37202   0.37202
 kpt#   8, nband= 24, wtk=  0.12500, kpt=  0.5000  0.5000  0.5000 (reduced coord)
  -0.15797  -0.15797  -0.15797  -0.15797  -0.06028  -0.06028  -0.06028  -0.06028
   0.15222   0.15222   0.15222   0.15222   0.15222   0.15222   0.15222   0.15222
   0.25179   0.25180   0.25180   0.25180   0.31876   0.31876   0.31876   0.31876
 Total charge density [el/Bohr^3]
,     Maximum=    8.7342E-02  at reduced coord.    0.8519    0.8519    0.8519
,Next maximum=    8.7342E-02  at reduced coord.    0.1481    0.1481    0.8519
,     Minimum=    2.9607E-03  at reduced coord.    0.5000    0.0000    0.0000
,Next minimum=    2.9607E-03  at reduced coord.    0.0000    0.5000    0.0000
,  Integrated=    3.2000E+01

--------------------------------------------------------------------------------
 Components of total free energy (in Hartree) :

    Kinetic energy  =  1.23053694747880E+01
    Hartree energy  =  2.24415354560481E+00
    XC energy       = -9.66070605694605E+00
    Ewald energy    = -3.35991274217693E+01
    PspCore energy  =  1.09569702845145E+00
    Loc. psp. energy= -9.58340987338737E+00
    NL   psp  energy=  5.70306704980718E+00
    >>>>>>>>> Etotal= -3.14949562534513E+01

 Other information on the energy :
    Total energy(eV)= -8.57021344266570E+02 ; Band energy (Ha)=   3.4903963143E-01
--------------------------------------------------------------------------------

 Cartesian components of stress tensor (hartree/bohr^3)
  sigma(1 1)= -8.53242660E-05  sigma(3 2)=  0.00000000E+00
  sigma(2 2)= -8.53242660E-05  sigma(3 1)=  0.00000000E+00
  sigma(3 3)= -8.53242660E-05  sigma(2 1)=  0.00000000E+00

-Cartesian components of stress tensor (GPa)         [Pressure=  2.5103E+00 GPa]
- sigma(1 1)= -2.51032615E+00  sigma(3 2)=  0.00000000E+00
- sigma(2 2)= -2.51032615E+00  sigma(3 1)=  0.00000000E+00
- sigma(3 3)= -2.51032615E+00  sigma(2 1)=  0.00000000E+00

== END DATASET(S) ==============================================================
================================================================================
  
 -outvars: echo values of variables after computation  --------
            acell      1.0000000000E+00  1.0000000000E+00  1.0000000000E+00 Bohr
              amu      2.80855000E+01
           diemac      1.20000000E+01
             ecut      3.20000000E+01 Hartree
           etotal1    -3.1494956253E+01
            fcart1     8.5008937599E-10  8.5008937599E-10  8.5008937599E-10
                      -8.5008937599E-10  8.5008937599E-10 -8.5008937599E-10
                       8.5008937599E-10 -8.5008937599E-10 -8.5008937599E-10
                      -8.5008937599E-10 -8.5008937599E-10  8.5008937599E-10
                       0.0000000000E+00  1.2924697071E-26  3.8774091213E-26
                       0.0000000000E+00  1.2924697071E-26  3.8774091213E-26
                       0.0000000000E+00  1.2924697071E-26  3.8774091213E-26
                       0.0000000000E+00  1.2924697071E-26  3.8774091213E-26
           istwfk        1    1    1    1    1    1    1    1
              ixc          11
           jdtset        1
              kpt      0.00000000E+00  0.00000000E+00  0.00000000E+00
                       5.00000000E-01  0.00000000E+00  0.00000000E+00
                       0.00000000E+00  5.00000000E-01  0.00000000E+00
                       5.00000000E-01  5.00000000E-01  0.00000000E+00
                       0.00000000E+00  0.00000000E+00  5.00000000E-01
                       5.00000000E-01  0.00000000E+00  5.00000000E-01
                       0.00000000E+00  5.00000000E-01  5.00000000E-01
                       5.00000000E-01  5.00000000E-01  5.00000000E-01
          kptrlen      2.05216683E+01
           kptopt           3
         kptrlatt      2  0  0   0  2  0   0  0  2
P           mkmem           1
            natom           8
            nband          24
           ndtset           1
            ngfft          54      54      54
             nkpt           8
            nstep         100
             nsym          24
           ntypat           1
              occ      2.000000  2.000000  2.000000  2.000000  2.000000  2.000000
                       2.000000  2.000000  2.000000  2.000000  2.000000  2.000000
                       2.000000  2.000000  2.000000  2.000000  0.000000  0.000000
                       0.000000  0.000000  0.000000  0.000000  0.000000  0.000000
            rprim      1.0260834173E+01  0.0000000000E+00  0.0000000000E+00
                       0.0000000000E+00  1.0260834173E+01  0.0000000000E+00
                       0.0000000000E+00  0.0000000000E+00  1.0260834173E+01
           strten1    -8.5324266048E-05 -8.5324266048E-05 -8.5324266048E-05
                       0.0000000000E+00  0.0000000000E+00  0.0000000000E+00
        symmorphi           0
           symrel      1  0  0   0  1  0   0  0  1      -1  0  0   0  1  0   0  0 -1
                      -1  0  0   0 -1  0   0  0  1       1  0  0   0 -1  0   0  0 -1
                       0  1  0   1  0  0   0  0  1       0 -1  0   1  0  0   0  0 -1
                       0 -1  0  -1  0  0   0  0  1       0  1  0  -1  0  0   0  0 -1
                       0  0  1   1  0  0   0  1  0       0  0 -1   1  0  0   0 -1  0
                       0  0 -1  -1  0  0   0  1  0       0  0  1  -1  0  0   0 -1  0
                       1  0  0   0  0  1   0  1  0      -1  0  0   0  0  1   0 -1  0
                      -1  0  0   0  0 -1   0  1  0       1  0  0   0  0 -1   0 -1  0
                       0  1  0   0  0  1   1  0  0       0 -1  0   0  0  1  -1  0  0
                       0 -1  0   0  0 -1   1  0  0       0  1  0   0  0 -1  -1  0  0
                       0  0  1   0  1  0   1  0  0       0  0 -1   0  1  0  -1  0  0
                       0  0 -1   0 -1  0   1  0  0       0  0  1   0 -1  0  -1  0  0
           toldfe      1.00000000E-09 Hartree
            typat      1  1  1  1  1  1  1  1
              wtk        0.12500    0.12500    0.12500    0.12500    0.12500    0.12500
                         0.12500    0.12500
           xangst      4.0723496890E+00  4.0723496890E+00  4.0723496890E+00
                       1.3574498963E+00  4.0723496890E+00  1.3574498963E+00
                       4.0723496890E+00  1.3574498963E+00  1.3574498963E+00
                       1.3574498963E+00  1.3574498963E+00  4.0723496890E+00
                       0.0000000000E+00  0.0000000000E+00  0.0000000000E+00
                       0.0000000000E+00  2.7148997927E+00  2.7148997927E+00
                       2.7148997927E+00  2.7148997927E+00  0.0000000000E+00
                       2.7148997927E+00  0.0000000000E+00  2.7148997927E+00
            xcart      7.6956256296E+00  7.6956256296E+00  7.6956256296E+00
                       2.5652085432E+00  7.6956256296E+00  2.5652085432E+00
                       7.6956256296E+00  2.5652085432E+00  2.5652085432E+00
                       2.5652085432E+00  2.5652085432E+00  7.6956256296E+00
                       0.0000000000E+00  0.0000000000E+00  0.0000000000E+00
                       0.0000000000E+00  5.1304170864E+00  5.1304170864E+00
                       5.1304170864E+00  5.1304170864E+00  0.0000000000E+00
                       5.1304170864E+00  0.0000000000E+00  5.1304170864E+00
             xred      7.5000000000E-01  7.5000000000E-01  7.5000000000E-01
                       2.5000000000E-01  7.5000000000E-01  2.5000000000E-01
                       7.5000000000E-01  2.5000000000E-01  2.5000000000E-01
                       2.5000000000E-01  2.5000000000E-01  7.5000000000E-01
                       0.0000000000E+00  0.0000000000E+00  0.0000000000E+00
                       0.0000000000E+00  5.0000000000E-01  5.0000000000E-01
                       5.0000000000E-01  5.0000000000E-01  0.0000000000E+00
                       5.0000000000E-01  0.0000000000E+00  5.0000000000E-01
            znucl       14.00000

================================================================================


- Timing analysis has been suppressed with timopt=0



================================================================================

 Suggested references for the acknowledgment of ABINIT usage.

 The users of ABINIT have little formal obligations with respect to the ABINIT group
 (those specified in the GNU General Public License, http://www.gnu.org/copyleft/gpl.txt).
 However, it is common practice in the scientific literature,
 to acknowledge the efforts of people that have made the research possible.
 In this spirit, please find below suggested citations of work written by ABINIT developers,
 corresponding to implementations inside of ABINIT that you have used in the present run.
 Note also that it will be of great value to readers of publications presenting these results,
 to read papers enabling them to understand the theoretical formalism and details
 of the ABINIT implementation.
 For information on why they are suggested, see also http://www.abinit.org/about/?text=acknowledgments.

 [1] Ab initio pseudopotentials for electronic structure calculations of poly-atomic systems, 
 using density-functional theory.
 M. Fuchs, M. Scheffler, Comput. Phys. Commun. 119, 67 (1999).
 Comment : Some pseudopotential generated using the FHI code were used.

 [2] ABINIT : First-principles approach of materials and nanosystem properties.
 X. Gonze, B. Amadon, P.-M. Anglade, J.-M. Beuken, F. Bottin, P. Boulanger, F. Bruneval,
 D. Caliste, R. Caracas, M. Cote, T. Deutsch, L. Genovese, Ph. Ghosez, M. Giantomassi
 S. Goedecker, D.R. Hamann, P. Hermet, F. Jollet, G. Jomard, S. Leroux, M. Mancini, S. Mazevet,
 M.J.T. Oliveira, G. Onida, Y. Pouillon, T. Rangel, G.-M. Rignanese, D. Sangalli, R. Shaltaf,
 M. Torrent, M.J. Verstraete, G. Zerah, J.W. Zwanziger
 Computer Phys. Comm. 180, 2582-2615 (2009).
 Comment : the third generic paper describing the ABINIT project.
 Note that a version of this paper, that is not formatted for Computer Phys. Comm. 
 is available at http://www.abinit.org/about/ABINIT_CPC_v10.pdf .
 The licence allows the authors to put it on the Web.

 [3] A brief introduction to the ABINIT software package.
 X. Gonze, G.-M. Rignanese, M. Verstraete, J.-M. Beuken, Y. Pouillon, R. Caracas, F. Jollet,
 M. Torrent, G. Zerah, M. Mikami, Ph. Ghosez, M. Veithen, J.-Y. Raty, V. Olevano, F. Bruneval,
 L. Reining, R. Godby, G. Onida, D.R. Hamann, and D.C. Allan.
 Z. Kristallogr. 220, 558-562 (2005).
 Comment : the second generic paper describing the ABINIT project. Note that this paper
 should be cited especially if you are using the GW part of ABINIT, as several authors
 of this part are not in the list of authors of the first or third paper.
 The .pdf of the latter paper is available at http://www.abinit.org/about/zfk_0505-06_558-562.pdf.
 Note that it should not redistributed (Copyright by Oldenburg Wissenshaftverlag,
 the licence allows the authors to put it on the Web).


 And optionally :

 [4] First-principles computation of material properties : the ABINIT software project. 
 X. Gonze, J.-M. Beuken, R. Caracas, F. Detraux, M. Fuchs, G.-M. Rignanese, L. Sindic,
 M. Verstraete, G. Zerah, F. Jollet, M. Torrent, A. Roy, M. Mikami, Ph. Ghosez, J.-Y. Raty, D.C. Allan.
 Computational Materials Science 25, 478-492 (2002). http://dx.doi.org/10.1016/S0927-0256(02)00325-7
 Comment : the original paper describing the ABINIT project.

 [5] Fast radix 2, 3, 4 and 5 kernels for Fast Fourier Transformations
 on computers with overlapping multiply-add instructions.
 S. Goedecker, SIAM J. on Scientific Computing 18, 1605 (1997).
-
- Proc.   0 individual time (sec): cpu=         24.4  wall=         24.3

================================================================================

 Calculation completed.
.Delivered    5 WARNINGs and   3 COMMENTs to log file.
+Overall time at end (sec) : cpu=        292.2  wall=        292.1
