1         ******************************************************
          *            GAMESS VERSION =  6 JUN 1999            *
          *             FROM IOWA STATE UNIVERSITY             *
          * M.W.SCHMIDT, K.K.BALDRIDGE, J.A.BOATZ, S.T.ELBERT, *
          *   M.S.GORDON, J.H.JENSEN, S.KOSEKI, N.MATSUNAGA,   *
          *          K.A.NGUYEN, S.J.SU, T.L.WINDUS,           *
          *       TOGETHER WITH M.DUPUIS, J.A.MONTGOMERY       *
          *         J.COMPUT.CHEM.  14, 1347-1363(1993)        *
          *******Intel x86 (Win32,Linux,OS/2,DOS) VERSION*******
          * PC GAMESS version 7.0 (Dragon), build number 3910  *
          *   Compiled on    Tuesday,   09-05-2006, 15:14:54   *
          *      Intel specific optimization, bug fixes,       *
          *    code changes, and additional functionality -    *
          *  copyright (c) 1994, 2006 by  Alex A. Granovsky,   *
          *        Laboratory of Chemical Cybernetics,         *
          *      Moscow State University, Moscow, Russia.      *
          *   Some parts of this program include code due to   *
          * work of Jim Kress, Peter Burger, and Robert Ponec. *
          ******************************************************
          *                   PC GAMESS URLs:                  *
          * http://classic.chem.msu.su/gran/gamess/index.html  *
          * http://quantum-2.chem.msu.ru/gran/gamess/index.html*
          *          E-mail: gran@classic.chem.msu.su          *
          *   This program may not be redistributed without    *
          * the specific, written permission of its developers.*
          ******************************************************


 AMD x86-64 / Linux  PC GAMESS version running under Linux.
 Running on AMD CPU  :  CPU Generation 15, Family 15, Model 43, Stepping  1
 CPU Brand String    :  AMD Athlon(tm) 64 X2 Processor 4200+            
 CPU Features        :  CMOV, MMX, SSE, SSE2, SSE3, AMD64                       
 Data cache size     :  L1 64 KB, L2  512 KB
 # of cores/package  :  2
 Operating System successfully passed SSE support test.


 PARALLEL VERSION (MPICH) RUNNING WITH   2 NODES     

 EXECUTION OF GAMESS BEGUN 23:18:37 LT  20-APR-2007

            ECHO OF THE FIRST FEW INPUT CARDS -
 INPUT CARD> $CONTRL SCFTYP=ROHF MULT=3 ICHARG=0 RUNTYP=ENERGY MAXIT=70 ECP=READ $END       
 INPUT CARD> $CONTRL COORD=UNIQUE $END                                                      
 INPUT CARD> $SYSTEM KDIAG=3 MEMORY=28886850 TIMLIM=10000000000 $END                        
 INPUT CARD> $SCF DIRSCF=.T. SOSCF=.F. $END                                                 
 INPUT CARD> $DATA                                                                          
 INPUT CARD>                                                                                
 INPUT CARD>CNV 2                                                                           
 INPUT CARD>                                                                                
 INPUT CARD>C  6 0.000000 0.0 0.0                                                           
 INPUT CARD> S   5                                                                          
 INPUT CARD>   1       8.1380377          0.11795918E-01                                    
 INPUT CARD>   2       3.3151758         -0.15198125                                        
 INPUT CARD>   3      0.66827631          0.27552348                                        
 INPUT CARD>   4      0.29176766          0.54864514                                        
 INPUT CARD>   5      0.11411349          0.30121511                                        
 INPUT CARD> S   1                                                                          
 INPUT CARD>  1       0.9059000000          1.000000000                                     
 INPUT CARD> S   1                                                                          
 INPUT CARD>  1       0.1285000000          1.000000000                                     
 INPUT CARD> P   5                                                                          
 INPUT CARD>   1       8.5281305          0.23512401E-01                                    
 INPUT CARD>   2       2.9014509          0.11648574                                        
 INPUT CARD>   3      0.94312090          0.32777384                                        
 INPUT CARD>   4      0.31558555          0.49260154                                        
 INPUT CARD>   5      0.10393611          0.27312428                                        
 INPUT CARD> P   1                                                                          
 INPUT CARD>  1       0.3827000000          1.000000000                                     
 INPUT CARD> P   1                                                                          
 INPUT CARD>  1       0.1209000000          1.000000000                                     
 INPUT CARD> D   1                                                                          
 INPUT CARD>  1       0.5500000000          1.000000000                                     
 INPUT CARD>                                                                                
 INPUT CARD> $END                                                                           
 INPUT CARD> $ECP                                                                           
 INPUT CARD>C-LES GEN 2 1                                                                   
 INPUT CARD>7       P                                                                       
 INPUT CARD> -16.7554933 2   7.71902471                                                     
 INPUT CARD> -0.318937855 2   2184.3154                                                     
 INPUT CARD> -2.90449512 2   20.7770051                                                     
 INPUT CARD> -1.24269724 2   76.3948299                                                     
 INPUT CARD> -0.601986071 2   351.761231                                                    
 INPUT CARD>  0.218138855 2   3.95786259                                                    
 INPUT CARD>  4. 1   5.992468                                                               
 INPUT CARD>3     S-P                                                                       
 INPUT CARD>  27.006964 2   5.74118955                                                      
 INPUT CARD>  8.57269969 2   5.12564415                                                     
 INPUT CARD> -6.3364597 2   4.68309865                                                      
 INPUT CARD> $END                                                                           
 INPUT CARD>                                                                                
   28886850 WORDS OF MEMORY AVAILABLE


     RUN TITLE
     ---------
                                                                                 

 THE POINT GROUP OF THE MOLECULE IS CNV     
 THE ORDER OF THE PRINCIPAL AXIS IS     2
 *** WARNING! ATOM   1 SHELL    1 TYPE S HAS NORMALIZATION   0.99999875
 *** WARNING! ATOM   1 SHELL    4 TYPE P HAS NORMALIZATION   1.00002537

 ATOM      ATOMIC                      COORDINATES (BOHR)
           CHARGE         X                   Y                   Z
 C           6.0     0.0000000000        0.0000000000        0.0000000000

          INTERNUCLEAR DISTANCES (ANGS.)
          ------------------------------

                    C         

  1  C               0.0000000    

  * ... LESS THAN  3.000


     ATOMIC BASIS SET
     ----------------
 THE CONTRACTED PRIMITIVE FUNCTIONS HAVE BEEN UNNORMALIZED
 THE CONTRACTED BASIS FUNCTIONS ARE NOW NORMALIZED TO UNITY

 SHELL TYPE PRIM    EXPONENT          CONTRACTION COEFFICIENTS

 C         

   1   S    1       8.138038    0.040507 (  0.011796) 
   1   S    2       3.315176   -0.266121 ( -0.151981) 
   1   S    3       0.668276    0.145139 (  0.275523) 
   1   S    4       0.291768    0.155231 (  0.548645) 
   1   S    5       0.114113    0.042149 (  0.301215) 

   2   S    6       0.905900    0.661790 (  1.000000) 

   3   S    7       0.128500    0.152963 (  1.000000) 

   4   P    8       8.528130    0.488445 (  0.023512) 
   4   P    9       2.901451    0.628772 (  0.116486) 
   4   P   10       0.943121    0.434245 (  0.327774) 
   4   P   11       0.315586    0.166090 (  0.492602) 
   4   P   12       0.103936    0.022976 (  0.273124) 

   5   P   13       0.382700    0.429055 (  1.000000) 

   6   P   14       0.120900    0.101619 (  1.000000) 

   7   D   15       0.550000    0.578155 (  1.000000) 

 TOTAL NUMBER OF SHELLS              =    7
 TOTAL NUMBER OF BASIS FUNCTIONS     =   18
 NUMBER OF ELECTRONS                 =    6
 CHARGE OF MOLECULE                  =    0
 STATE MULTIPLICITY                  =    3
 NUMBER OF OCCUPIED ORBITALS (ALPHA) =    4
 NUMBER OF OCCUPIED ORBITALS (BETA ) =    2
 TOTAL NUMBER OF ATOMS               =    1
 THE NUCLEAR REPULSION ENERGY IS        0.0000000000

 THIS MOLECULE IS RECOGNIZED AS BEING LINEAR.

     $CONTRL OPTIONS
     ---------------
     SCFTYP=ROHF         RUNTYP=ENERGY       EXETYP=RUN     
     MPLEVL=       0     LOCAL =NONE         UNITS =ANGS    
     MULT  =       3     ICHARG=       0     MAXIT =      70
     NPRINT=       7     IREST =       0     COORD =UNIQUE  
     ECP   =READ         NORMF =       0     NORMP =       0
     ITOL  =      20     ICUT  =       9     NZVAR =       0
     NOSYM =       0     INTTYP=POPLE        GEOM  =INPUT   
     PLTORB=       F     MOLPLT=       F     RPAC  =       F
     AIMPAC=       F     FRIEND=             CITYP =NONE    
     DFTTYP=NONE    

     $SYSTEM OPTIONS
     ---------------
     KDIAG =       3     MEMORY= 28886850     TIMLIM=*********** SEC.
     COREFL=       F     PTIME =        F     XDR   =       F
     BALTYP=LOOP    

          --------------
          ECP POTENTIALS
          --------------

 PARAMETERS FOR "C-LES   " ON ATOM    1 WITH ZCORE   2 AND LMAX  1 ARE
 FOR L= 1      COEFF    N           ZETA
    1      -16.75549    2        7.71902
    2       -0.31894    2     2184.31540
    3       -2.90450    2       20.77701
    4       -1.24270    2       76.39483
    5       -0.60199    2      351.76123
    6        0.21814    2        3.95786
    7        4.00000    1        5.99247
 FOR L= 0      COEFF    N           ZETA
    1       27.00696    2        5.74119
    2        8.57270    2        5.12564
    3       -6.33646    2        4.68310

 THE ECP RUN REMOVES    2 CORE ELECTRONS, AND THE SAME NUMBER OF PROTONS.
 THE ADJUSTED NUCLEAR REPULSION ENERGY=        0.0000000000
          ECP ANGULAR INTS.........     0.00 SECONDS

          ----------------
          PROPERTIES INPUT
          ----------------

     MOMENTS            FIELD           POTENTIAL          DENSITY
 IEMOM =       1   IEFLD =       0   IEPOT =       0   IEDEN =       0
 WHERE =COMASS     WHERE =NUCLEI     WHERE =NUCLEI     WHERE =NUCLEI  
 OUTPUT=BOTH       OUTPUT=BOTH       OUTPUT=BOTH       OUTPUT=BOTH    
 IEMINT=       0   IEFINT=       0                     IEDINT=       0
                                                       MORB  =       0

          EXTRAPOLATION IN EFFECT
          DIIS IN EFFECT

          ----------------------
          INTEGRAL INPUT OPTIONS
          ----------------------
 NOPK  =       1 NORDER=       0 SCHWRZ=       T

 ATTENTION! AO INTEGRALS WILL BE PACKED.
 THRESHOLD FOR PACKING PKTHR =  0.10000000D-01

     -------------------------------
     INTEGRAL TRANSFORMATION OPTIONS
     -------------------------------
     NWORD  =       0     CUTTRF = 1.0E-09
     MPTRAN =       0     DIRTRF =       T
     AOINTS =DUP          IREST  =       0

     ------------------------------------------
     THE POINT GROUP IS CNV, NAXIS= 2, ORDER= 4
     ------------------------------------------

     DIMENSIONS OF THE SYMMETRY SUBSPACES ARE
 A1  =   9      A2  =   1      B1  =   4      B2  =   4

 ..... DONE SETTING UP THE RUN .....

                         TIMING STATISTICS ON NODE 0:
 CPU        TIME:   STEP =      0.13 ,  TOTAL =        0.2 SECONDS (    0.0 MIN)
 WALL CLOCK TIME:   STEP =      0.14 ,  TOTAL =        0.1 SECONDS (    0.0 MIN)
 CPU UTILIZATION:   STEP =     92.95%,  TOTAL =     100.00%

          ********************
          1 ELECTRON INTEGRALS
          ********************
 TIME TO DO ORDINARY INTEGRALS=      0.00
 TIME TO DO      ECP INTEGRALS=      0.00
 ...... END OF ONE-ELECTRON INTEGRALS ......

                         TIMING STATISTICS ON NODE 0:
 CPU        TIME:   STEP =      0.00 ,  TOTAL =        0.2 SECONDS (    0.0 MIN)
 WALL CLOCK TIME:   STEP =      0.00 ,  TOTAL =        0.1 SECONDS (    0.0 MIN)
 CPU UTILIZATION:   STEP =      0.00%,  TOTAL =     100.00%

          -------------
          GUESS OPTIONS
          -------------
          GUESS =HUCKEL            NORB  =       0          NORDER=       0
          MIX   =       F          PRTMO =       F          SYMDEN=       F
          TOLZ  = 1.0E-08          TOLE  = 1.0E-05

 INITIAL GUESS ORBITALS GENERATED BY HUCKEL   ROUTINE.
 HUCKEL GUESS REQUIRES      2994 WORDS.

 SYMMETRIES FOR INITIAL GUESS ORBITALS FOLLOW.  ALPHA SET(S).
     3 ORBITALS ARE OCCUPIED (    0 CORE ORBITALS).
     1=A1       2=B1       3=B2       4=A1       5=A1       6=A1       7=A1  
     8=A1       9=A1      10=A1      11=A1      12=A2      13=B1  

 SYMMETRIES FOR INITIAL GUESS ORBITALS FOLLOW.   BETA SET(S).
     1 ORBITALS ARE OCCUPIED (    0 CORE ORBITALS).
     1=A1       2=B1       3=B2       4=A1       5=A1       6=A1       7=A1  
     8=A1       9=A1      10=A1      11=A1  
 ...... END OF INITIAL ORBITAL SELECTION ......

                         TIMING STATISTICS ON NODE 0:
 CPU        TIME:   STEP =      0.00 ,  TOTAL =        0.2 SECONDS (    0.0 MIN)
 WALL CLOCK TIME:   STEP =      0.00 ,  TOTAL =        0.1 SECONDS (    0.0 MIN)
 CPU UTILIZATION:   STEP =      0.00%,  TOTAL =     100.00%

          --------------------
          2 ELECTRON INTEGRALS
          --------------------

 DIRECT SCF METHOD SKIPS INTEGRAL STORAGE ON DISK.
 DIRECT TRANSFORMATION SKIPS AO INTEGRAL STORAGE ON DISK.
 ...... END OF TWO-ELECTRON INTEGRALS .....

                         TIMING STATISTICS ON NODE 0:
 CPU        TIME:   STEP =      0.01 ,  TOTAL =        0.2 SECONDS (    0.0 MIN)
 WALL CLOCK TIME:   STEP =      0.00 ,  TOTAL =        0.1 SECONDS (    0.0 MIN)
 CPU UTILIZATION:   STEP =    100.00%,  TOTAL =     100.00%

          --------------------
          ROHF SCF CALCULATION
          --------------------

     NUCLEAR ENERGY =         0.0000000000
     MAXIT = 70     NPUNCH=  2     MULT=  3
     EXTRAP=T  DAMP=F  SHIFT=F  RSTRCT=F  DIIS=T  SOSCF=F
     DENSITY CONV=  2.00E-05
     ROHF CANONICALIZATION PARAMETERS
             C-C     O-O     V-V
     ALPHA -0.5000  0.5000  1.5000
     BETA   1.5000  0.5000 -0.5000
     MEMORY REQUIRED FOR UHF/ROHF STEP=     30765 WORDS.

 DIRECT SCF CALCULATION, SCHWRZ=T   FDIFF=T
 SCHWARZ INEQUALITY OVERHEAD:       171 INTEGRALS, T=        0.00

                                                                           NONZERO    BLOCKS
 ITER EX   TOTAL ENERGY      E CHANGE  DENSITY CHANGE    DIIS ERROR      INTEGRALS   SKIPPED
   1  0    -5.245655732    -5.245655732   0.463998580   0.562257136          14655        25
          * * *   INITIATING DIIS PROCEDURE   * * *
   2  1    -5.303487748    -0.057832016   0.358847978   0.083969663          20487         0
   3  2    -5.312651293    -0.009163545   0.105766377   0.050984980          20487         0
   4  3    -5.314477420    -0.001826127   0.005831877   0.002749257          20487         0
   5  4    -5.314479766    -0.000002346   0.000573719   0.000266699          20487         0
   6  5    -5.314479812    -0.000000046   0.000039212   0.000016328          20487         0
   7  6    -5.314479812     0.000000000   0.000000116   0.000000059          19647        17
   8  7    -5.314479812     0.000000000   0.000000004   0.000000002          10005       145

          -----------------
          DENSITY CONVERGED
          -----------------
     TIME TO FORM FOCK OPERATORS=       0.0 SECONDS (       0.0 SEC/ITER)
     FOCK TIME ON FIRST ITERATION=       0.0, LAST ITERATION=       0.0
     TIME TO SOLVE SCF EQUATIONS=       0.0 SECONDS (       0.0 SEC/ITER)

 FINAL ENERGY IS       -5.3144798123 AFTER   8 ITERATIONS

          --------------------
          SPIN SZ   =    1.000
          S-SQUARED =    2.000
          --------------------

          ------------
          EIGENVECTORS
          ------------

                      1          2          3          4          5
                   -0.4662    -0.1303    -0.1303     0.0022     0.3845
                     A1         B2         B1         A1         B1  
    1  C   1  S   1.000493   0.000000   0.000000   0.000000   0.000000
    2  C   1  S  -0.000065   0.000000   0.000000   0.000000   0.000000
    3  C   1  S  -0.000154   0.000000   0.000000   0.000000   0.000000
    4  C   1  X   0.000000   0.000000   0.999563   0.000000  -0.677353
    5  C   1  Y   0.000000   0.999563   0.000000   0.000000   0.000000
    6  C   1  Z   0.000000   0.000000   0.000000   0.748754   0.000000
    7  C   1  X   0.000000   0.000000   0.000235   0.000000  -0.467610
    8  C   1  Y   0.000000   0.000235   0.000000   0.000000   0.000000
    9  C   1  Z   0.000000   0.000000   0.000000  -0.028650   0.000000
   10  C   1  X   0.000000   0.000000   0.000281   0.000000   1.472722
   11  C   1  Y   0.000000   0.000281   0.000000   0.000000   0.000000
   12  C   1  Z   0.000000   0.000000   0.000000   0.333869   0.000000
   13  C   1 XX   0.001305   0.000000   0.000000   0.000000   0.000000
   14  C   1 YY   0.001305   0.000000   0.000000   0.000000   0.000000
   15  C   1 ZZ  -0.003046   0.000000   0.000000   0.000000   0.000000
   16  C   1 XY   0.000000   0.000000   0.000000   0.000000   0.000000
   17  C   1 XZ   0.000000   0.000000   0.000000   0.000000   0.000000
   18  C   1 YZ   0.000000   0.000000   0.000000   0.000000   0.000000

                      6          7          8          9         10
                    0.3845     0.3858     0.4749     1.2517     1.2517
                     B2         A1         A1         A1         A2  
    1  C   1  S   0.000000  -0.625559   0.000000   0.000000   0.000000
    2  C   1  S   0.000000  -0.506919   0.000000   0.000000   0.000000
    3  C   1  S   0.000000   2.043160   0.000000   0.000000   0.000000
    4  C   1  X   0.000000   0.000000   0.000000   0.000000   0.000000
    5  C   1  Y  -0.677353   0.000000   0.000000   0.000000   0.000000
    6  C   1  Z   0.000000   0.000000  -0.720998   0.000000   0.000000
    7  C   1  X   0.000000   0.000000   0.000000   0.000000   0.000000
    8  C   1  Y  -0.467610   0.000000   0.000000   0.000000   0.000000
    9  C   1  Z   0.000000   0.000000  -0.599144   0.000000   0.000000
   10  C   1  X   0.000000   0.000000   0.000000   0.000000   0.000000
   11  C   1  Y   1.472722   0.000000   0.000000   0.000000   0.000000
   12  C   1  Z   0.000000   0.000000   1.410090   0.000000   0.000000
   13  C   1 XX   0.000000  -0.427527   0.000000  -0.866025   0.000000
   14  C   1 YY   0.000000  -0.427527   0.000000   0.866025   0.000000
   15  C   1 ZZ   0.000000  -0.406545   0.000000   0.000000   0.000000
   16  C   1 XY   0.000000   0.000000   0.000000   0.000000   1.000000
   17  C   1 XZ   0.000000   0.000000   0.000000   0.000000   0.000000
   18  C   1 YZ   0.000000   0.000000   0.000000   0.000000   0.000000

                     11         12         13         14         15
                    1.3120     1.3120     1.3328     2.2011     2.2011
                     B1         B2         A1         B1         B2  
    1  C   1  S   0.000000   0.000000  -0.024079   0.000000   0.000000
    2  C   1  S   0.000000   0.000000   0.009711   0.000000   0.000000
    3  C   1  S   0.000000   0.000000  -0.023073   0.000000   0.000000
    4  C   1  X   0.000000   0.000000   0.000000   3.572102   0.000000
    5  C   1  Y   0.000000   0.000000   0.000000   0.000000   3.572102
    6  C   1  Z   0.000000   0.000000   0.000000   0.000000   0.000000
    7  C   1  X   0.000000   0.000000   0.000000  -3.276858   0.000000
    8  C   1  Y   0.000000   0.000000   0.000000   0.000000  -3.276858
    9  C   1  Z   0.000000   0.000000   0.000000   0.000000   0.000000
   10  C   1  X   0.000000   0.000000   0.000000  -0.601646   0.000000
   11  C   1  Y   0.000000   0.000000   0.000000   0.000000  -0.601646
   12  C   1  Z   0.000000   0.000000   0.000000   0.000000   0.000000
   13  C   1 XX   0.000000   0.000000  -0.480422   0.000000   0.000000
   14  C   1 YY   0.000000   0.000000  -0.480422   0.000000   0.000000
   15  C   1 ZZ   0.000000   0.000000   1.019361   0.000000   0.000000
   16  C   1 XY   0.000000   0.000000   0.000000   0.000000   0.000000
   17  C   1 XZ   1.000000   0.000000   0.000000   0.000000   0.000000
   18  C   1 YZ   0.000000   1.000000   0.000000   0.000000   0.000000

                     16         17         18
                    2.2774     2.4043    11.6889
                     A1         A1         A1  
    1  C   1  S   0.000000   3.571133  11.174079
    2  C   1  S   0.000000  -0.185439  -3.695904
    3  C   1  S   0.000000  -0.479001  -4.428265
    4  C   1  X   0.000000   0.000000   0.000000
    5  C   1  Y   0.000000   0.000000   0.000000
    6  C   1  Z   3.624552   0.000000   0.000000
    7  C   1  X   0.000000   0.000000   0.000000
    8  C   1  Y   0.000000   0.000000   0.000000
    9  C   1  Z  -3.255252   0.000000   0.000000
   10  C   1  X   0.000000   0.000000   0.000000
   11  C   1  Y   0.000000   0.000000   0.000000
   12  C   1  Z  -0.656557   0.000000   0.000000
   13  C   1 XX   0.000000  -1.424882  -2.044576
   14  C   1 YY   0.000000  -1.424882  -2.044576
   15  C   1 ZZ   0.000000  -1.411026  -2.044208
   16  C   1 XY   0.000000   0.000000   0.000000
   17  C   1 XZ   0.000000   0.000000   0.000000
   18  C   1 YZ   0.000000   0.000000   0.000000
 ...... END OF ROHF CALCULATION ......

                         TIMING STATISTICS ON NODE 0:
 CPU        TIME:   STEP =      0.03 ,  TOTAL =        0.2 SECONDS (    0.0 MIN)
 WALL CLOCK TIME:   STEP =      0.03 ,  TOTAL =        0.2 SECONDS (    0.0 MIN)
 CPU UTILIZATION:   STEP =    100.00%,  TOTAL =     100.00%


                        -------------------------------
                        properties for the ROHF density
                        -------------------------------

          -----------------
          ENERGY COMPONENTS
          -----------------

         WAVEFUNCTION NORMALIZATION =       1.0000000000

                ONE ELECTRON ENERGY =      -8.3511840626
                TWO ELECTRON ENERGY =       3.0367042503
           NUCLEAR REPULSION ENERGY =       0.0000000000
                                      ------------------
                       TOTAL ENERGY =      -5.3144798123

 ELECTRON-ELECTRON POTENTIAL ENERGY =       3.0367042503
  NUCLEUS-ELECTRON POTENTIAL ENERGY =     -11.6900068905
   NUCLEUS-NUCLEUS POTENTIAL ENERGY =       0.0000000000
                                      ------------------
             TOTAL POTENTIAL ENERGY =      -8.6533026402
               TOTAL KINETIC ENERGY =       3.3388228279
                 VIRIAL RATIO (V/T) =       2.5917226179

          ---------------------------------------
          MULLIKEN AND LOWDIN POPULATION ANALYSES
          ---------------------------------------

     MULLIKEN ATOMIC POPULATION IN EACH MOLECULAR ORBITAL

                      1          2          3

                  2.000000   1.000000   1.000000

    1             2.000000   1.000000   1.000000

     ATOMIC SPIN POPULATION (ALPHA MINUS BETA)
       ATOM         MULL.POP.                    LOW.POP.
    1 C             2.000000                     2.000000

               ----- POPULATIONS IN EACH AO -----
                             MULLIKEN      LOWDIN
              1  C   1  S     2.00098     0.62656
              2  C   1  S    -0.00010     0.28964
              3  C   1  S    -0.00029     0.42438
              4  C   1  X     0.99956     0.55628
              5  C   1  Y     0.99956     0.55628
              6  C   1  Z     0.00000     0.00000
              7  C   1  X     0.00022     0.30537
              8  C   1  Y     0.00022     0.30537
              9  C   1  Z     0.00000     0.00000
             10  C   1  X     0.00021     0.13835
             11  C   1  Y     0.00021     0.13835
             12  C   1  Z     0.00000     0.00000
             13  C   1 XX     0.00183     0.22137
             14  C   1 YY     0.00183     0.22137
             15  C   1 ZZ    -0.00426     0.21667
             16  C   1 XY     0.00000     0.00000
             17  C   1 XZ     0.00000     0.00000
             18  C   1 YZ     0.00000     0.00000

          ----- MULLIKEN ATOMIC OVERLAP POPULATIONS -----
          (OFF-DIAGONAL ELEMENTS NEED TO BE MULTIPLIED BY 2)

             1

    1    4.0000000

          TOTAL MULLIKEN AND LOWDIN ATOMIC POPULATIONS
       ATOM         MULL.POP.    CHARGE          LOW.POP.     CHARGE
    1 C             4.000000    0.000000         4.000000    0.000000

          -------------------------------
          BOND ORDER AND VALENCE ANALYSIS     BOND ORDER THRESHOLD=0.050
          -------------------------------

                   BOND                       BOND                       BOND
  ATOM PAIR DIST  ORDER      ATOM PAIR DIST  ORDER      ATOM PAIR DIST  ORDER

                       TOTAL       BONDED        FREE
      ATOM            VALENCE     VALENCE     VALENCE
    1 C                 2.000       0.000       2.000

          ATOMIC SPIN DENSITY AT THE NUCLEUS (A.U.)
          -----------------------------------------

    1  C            4.0     0.0000000

          ---------------------
          ELECTROSTATIC MOMENTS
          ---------------------

 POINT   1           X           Y           Z (BOHR)    CHARGE
                 0.000000    0.000000    0.000000        0.00 (A.U.)
         DX          DY          DZ         /D/  (DEBYE)
     0.000000    0.000000    0.000000    0.000000
 ...... END OF PROPERTY EVALUATION ......

                         TIMING STATISTICS ON NODE 0:
 CPU        TIME:   STEP =      0.00 ,  TOTAL =        0.2 SECONDS (    0.0 MIN)
 WALL CLOCK TIME:   STEP =      0.00 ,  TOTAL =        0.2 SECONDS (    0.0 MIN)
 CPU UTILIZATION:   STEP =      0.00%,  TOTAL =     100.00%
 ......END OF NBO ANALYSIS......

                         TIMING STATISTICS ON NODE 0:
 CPU        TIME:   STEP =      0.00 ,  TOTAL =        0.2 SECONDS (    0.0 MIN)
 WALL CLOCK TIME:   STEP =      0.00 ,  TOTAL =        0.2 SECONDS (    0.0 MIN)
 CPU UTILIZATION:   STEP =      0.00%,  TOTAL =     100.00%

                         OVERALL  TIMING  STATISTICS:
 GLOBAL CPU TIME ELAPSED      =         0.4 SECONDS (    0.0 MIN)
 NODE 0 WALL CLOCK TIME       =         0.2 SECONDS (    0.0 MIN)
 JOB CPU UTILIZATION:   TOTAL =    243.58%, PER NODE AVERAGE =    122.45%

      197292 WORDS OF    DYNAMIC MEMORY USED
 EXECUTION OF GAMESS TERMINATED NORMALLY 23:18:38 LT  20-APR-2007
