MnO                                                                     
SP        UHF                                                         Gen                 
Number of atoms                            I                2
Charge                                     I                0
Multiplicity                               I                4
Number of electrons                        I               21
Number of alpha electrons                  I               12
Number of beta electrons                   I                9
Number of basis functions                  I               70
Number of independant functions            I               70
Number of point charges in /Mol/           I                0
Number of translation vectors              I                0
Info1-9                                    I   N=           9
         147         145           0           0           0         111
           1           1           2
Num ILSW                                   I              100
ILSW                                       I   N=         100
           1           1           0           0           2           0
           0           0           0           0           0     1000000
           0           0           0           1           0           0
           0     1000000           0           0           0           0
           1           0           0           0     1000000           0
           0           0           0           0          -1           0
           0           0           0           0           0           0
           0           0           0           1           0           0
           0           0           1     1000000     1000000           0
           0           0           0           0           0           0
           0           0           0           0           0           0
           0           0           0           0           0           0
           0           0           0           0           0           0
           0           0           0           0           0           0
           0           0           0           0           0           0
           0           0           0           0           0           0
           0           0           0           0
Number of contracted shells                I               23
Highest angular momentum                   I                3
Largest degree of contraction              I                7
Number of primitive shells                 I               51
Pure/Cartesian d shells                    I                1
Pure/Cartesian f shells                    I                1
Virial Ratio                               R      2.730557151792276E+00
SCF Energy                                 R     -1.189061820674827E+02
Total Energy                               R     -1.189061820674827E+02
S**2                                       R      3.818323326382489E+00
S**2 after annihilation                    R      3.750947714165378E+00
RMS Density                                R      6.070178518918919E-05
Atomic numbers                             I   N=           2
          25           8
Nuclear charges                            R   N=           2
  1.50000000E+01  6.00000000E+00
Current cartesian coordinates              R   N=           6
  0.00000000E+00  0.00000000E+00  7.50983121E-01  0.00000000E+00  0.00000000E+00
 -2.34682225E+00
Int Atom Types                             I   N=           2
           0           0
Force Field                                I                0
MM charges                                 R   N=           2
  0.00000000E+00  0.00000000E+00
Integer atomic weights                     I   N=           2
          55          16
Real atomic weights                        R   N=           2
  5.49380463E+01  1.59949146E+01
Atom residue info                          I   N=           2
           0           0
Atom fragment info                         I   N=           2
           0           0
Atom residue num                           I   N=           2
           0           0
Nuclear spins                              I   N=           2
           5           0
Nuclear ZEff                               R   N=           2
 -1.27500000E+01 -6.00000000E+00
Nuclear QMom                               R   N=           2
  4.00000000E+01  0.00000000E+00
Nuclear GFac                               R   N=           2
  3.45320000E+00  0.00000000E+00
MicOpt                                     I   N=           2
           0           0
Constraint Structure                       R   N=           6
  0.00000000E+00  0.00000000E+00  7.50983121E-01  0.00000000E+00  0.00000000E+00
 -2.34682225E+00
ONIOM Charges                              I   N=          16
           0           0           0           0           0           0
           0           0           0           0           0           0
           0           0           0           0
ONIOM Multiplicities                       I   N=          16
           4           0           0           0           0           0
           0           0           0           0           0           0
           0           0           0           0
Atom Layers                                I   N=           2
           1           1
Atom Modifiers                             I   N=           2
           0           0
Int Atom Modified Types                    I   N=           2
           0           0
Link Atoms                                 I   N=           2
           0           0
Atom Modified MM Charges                   R   N=           2
  0.00000000E+00  0.00000000E+00
Link Distances                             R   N=           8
  0.00000000E+00  0.00000000E+00  0.00000000E+00  0.00000000E+00  0.00000000E+00
  0.00000000E+00  0.00000000E+00  0.00000000E+00
MxBond                                     I                1
NBond                                      I   N=           2
           1           1
IBond                                      I   N=           2
           2           1
RBond                                      R   N=           2
  1.00000000E+00  1.00000000E+00
Shell types                                I   N=          23
           0           0           0           0           0           0
           1           1           1           1           1           1
           2           2           2           3           0           0
           0           1           1           1           2
Number of primitives per shell             I   N=          23
           7           1           1           1           1           1
           7           1           1           1           1           1
           5           1           1           1           7           1
           1           7           1           1           1
Shell to atom map                          I   N=          23
           1           1           1           1           1           1
           1           1           1           1           1           1
           1           1           1           1           2           2
           2           2           2           2           2
Primitive exponents                        R   N=          51
  3.72671550E+01  2.32956640E+01  1.40613650E+01  9.93038750E+00  7.99798820E+00
  1.92052080E+00  1.08611540E+00  1.76598300E+00  7.13774000E-01  2.50000000E-01
  1.00000000E-01  4.00000000E-02  5.04536130E+01  2.09930990E+01  1.81589220E+01
  1.23287130E+01  4.58239270E+00  3.30828430E+00  1.37130110E+00  1.76598300E+00
  7.13774000E-01  2.50000000E-01  1.00000000E-01  4.00000000E-02  2.78515090E+01
  1.61521400E+01  5.61697480E+00  2.15907310E+00  7.70496900E-01  2.70000000E-01
  7.00000000E-02  1.80000000E+00  1.94478130E+01  1.24209720E+01  6.17153640E+00
  4.05323360E+00  1.11991640E+00  4.32572340E-01  1.59800070E-01  2.95000000E-01
  9.78000000E-02  6.28410070E+01  2.43213840E+01  9.38651180E+00  3.26276140E+00
  1.24861250E+00  4.67356200E-01  1.60239380E-01  2.40000000E-01  8.00000000E-02
  9.80000000E-01
Contraction coefficients                   R   N=          51
  5.88133445E-02 -3.89222846E-01  1.14920562E+00 -3.74018213E-01 -9.31518635E-01
  7.68573654E-01  5.73404136E-01  1.00000000E+00  1.00000000E+00  1.00000000E+00
  1.00000000E+00  1.00000000E+00  3.72831884E-03 -4.22141368E-01  6.93873171E-01
 -3.13406230E-01 -1.35430733E-01  5.35022640E-01  6.71723108E-01  1.00000000E+00
  1.00000000E+00  1.00000000E+00  1.00000000E+00  1.00000000E+00 -9.30795407E-03
  9.44865372E-02  2.40061988E-01  4.38665647E-01  4.79818779E-01  1.00000000E+00
  1.00000000E+00  1.00000000E+00  2.38381096E-03  1.49554851E-02 -1.76890355E-01
  2.77878094E-02  3.99546255E-01  5.65399408E-01  1.57805786E-01  1.00000000E+00
  1.00000000E+00 -1.38254308E-04  7.62305289E-03  7.01573095E-02  1.95674735E-01
  3.53268044E-01  4.17706359E-01  2.10780474E-01  1.00000000E+00  1.00000000E+00
  1.00000000E+00
Coordinates of each shell                  R   N=          69
  0.00000000E+00  0.00000000E+00  7.50983121E-01  0.00000000E+00  0.00000000E+00
  7.50983121E-01  0.00000000E+00  0.00000000E+00  7.50983121E-01  0.00000000E+00
  0.00000000E+00  7.50983121E-01  0.00000000E+00  0.00000000E+00  7.50983121E-01
  0.00000000E+00  0.00000000E+00  7.50983121E-01  0.00000000E+00  0.00000000E+00
  7.50983121E-01  0.00000000E+00  0.00000000E+00  7.50983121E-01  0.00000000E+00
  0.00000000E+00  7.50983121E-01  0.00000000E+00  0.00000000E+00  7.50983121E-01
  0.00000000E+00  0.00000000E+00  7.50983121E-01  0.00000000E+00  0.00000000E+00
  7.50983121E-01  0.00000000E+00  0.00000000E+00  7.50983121E-01  0.00000000E+00
  0.00000000E+00  7.50983121E-01  0.00000000E+00  0.00000000E+00  7.50983121E-01
  0.00000000E+00  0.00000000E+00  7.50983121E-01  0.00000000E+00  0.00000000E+00
 -2.34682225E+00  0.00000000E+00  0.00000000E+00 -2.34682225E+00  0.00000000E+00
  0.00000000E+00 -2.34682225E+00  0.00000000E+00  0.00000000E+00 -2.34682225E+00
  0.00000000E+00  0.00000000E+00 -2.34682225E+00  0.00000000E+00  0.00000000E+00
 -2.34682225E+00  0.00000000E+00  0.00000000E+00 -2.34682225E+00
Alpha Orbital Energies                     R   N=          70
 -3.96944877E+00 -2.63683230E+00 -2.62440207E+00 -2.62179787E+00 -1.09502007E+00
 -5.91402753E-01 -5.88140030E-01 -5.16307645E-01 -4.73046537E-01 -3.82714315E-01
 -3.28124741E-01 -3.26826094E-01 -4.67920609E-02  5.44413120E-02  5.47287851E-02
  6.49216463E-02  8.18983981E-02  1.47378087E-01  2.03274539E-01  2.03547011E-01
  2.04820300E-01  2.07449775E-01  2.34881360E-01  2.77159787E-01  2.77259492E-01
  3.09359878E-01  3.38044568E-01  3.76200391E-01  3.76407674E-01  4.81553919E-01
  6.39945862E-01  8.28456226E-01  8.32655251E-01  8.33126517E-01  9.94384206E-01
  1.01199907E+00  1.02441283E+00  1.04847381E+00  1.04983479E+00  1.30590809E+00
  1.44154275E+00  1.44202163E+00  1.56792301E+00  2.02916111E+00  2.64854712E+00
  2.64878392E+00  2.65006751E+00  2.77416530E+00  2.77438997E+00  2.96635599E+00
  2.96813668E+00  3.26881618E+00  3.61702460E+00  4.80217410E+00  4.82955359E+00
  4.86372077E+00  4.86534494E+00  4.90001413E+00  4.90207986E+00  5.18034232E+00
  5.38792920E+00  6.58967781E+00  8.11638113E+00  8.11867478E+00  8.28625178E+00
  1.68270943E+01  5.16023926E+01  5.16046607E+01  5.29879798E+01  5.42707968E+01
Beta Orbital Energies                      R   N=          70
 -3.70247052E+00 -2.31691490E+00 -2.30050109E+00 -2.29600344E+00 -1.09480680E+00
 -4.06538840E-01 -3.72171352E-01 -3.47882234E-01 -3.47381758E-01 -2.99677337E-02
  4.91742030E-02  4.97650608E-02  7.87536824E-02  9.22921769E-02  1.71600143E-01
  1.74396566E-01  1.89891508E-01  1.90580944E-01  2.13707477E-01  2.64846205E-01
  2.85791958E-01  2.86870255E-01  3.27223367E-01  3.28450595E-01  3.29430326E-01
  3.45699203E-01  3.76263896E-01  3.95188036E-01  3.95624185E-01  5.05514970E-01
  6.43564424E-01  8.51657311E-01  8.68571893E-01  8.70766858E-01  1.04749390E+00
  1.06014423E+00  1.17398732E+00  1.19711970E+00  1.19846677E+00  1.33601934E+00
  1.45535660E+00  1.45553424E+00  1.55425665E+00  2.06287750E+00  2.66100109E+00
  2.66138141E+00  2.66795088E+00  2.77104609E+00  2.77131280E+00  3.02878748E+00
  3.03219758E+00  3.29008802E+00  3.65098159E+00  5.01962684E+00  5.02131261E+00
  5.02427262E+00  5.07968772E+00  5.08212379E+00  5.08364137E+00  5.29635069E+00
  5.45820666E+00  6.59139775E+00  8.19608601E+00  8.19959938E+00  8.36076628E+00
  1.68830307E+01  5.16220905E+01  5.16246808E+01  5.30082444E+01  5.43005359E+01
Alpha MO coefficients                      R   N=        4900
  6.59772306E-01 -1.73461933E-02  3.01381877E-01  9.10991112E-02  6.72568186E-03
  7.03641778E-03  0.00000000E+00  0.00000000E+00  2.73864988E-03  0.00000000E+00
  0.00000000E+00 -2.87337639E-03  0.00000000E+00  0.00000000E+00  5.30733481E-03
  0.00000000E+00  0.00000000E+00  4.14113496E-03  0.00000000E+00  0.00000000E+00
  1.91103419E-03  0.00000000E+00  0.00000000E+00  2.75298130E-04 -2.44418808E-03
 -1.55947629E-03  7.72943047E-03  0.00000000E+00  0.00000000E+00  0.00000000E+00
 -1.49220624E-02 -1.52694403E-02 -1.87137821E-02  0.00000000E+00  0.00000000E+00
  0.00000000E+00 -3.21875883E-03 -3.14240414E-03 -3.69333661E-03  0.00000000E+00
  0.00000000E+00  0.00000000E+00  0.00000000E+00  0.00000000E+00  2.47099789E-03
  0.00000000E+00  0.00000000E+00  7.77318674E-05  0.00000000E+00  0.00000000E+00
  6.37781333E-05  0.00000000E+00  6.27523926E-03 -3.13957425E-04  3.67908423E-03
  0.00000000E+00  0.00000000E+00  6.09249683E-03  0.00000000E+00  0.00000000E+00
  2.19077259E-04  0.00000000E+00  0.00000000E+00  3.58564652E-04 -3.49809695E-04
 -3.39385840E-04  1.20906693E-03  0.00000000E+00  0.00000000E+00  0.00000000E+00
 -9.60845287E-03 -6.23068759E-03 -1.17466677E-03  1.47808499E-02  2.73430462E-02
 -1.62295139E-02  0.00000000E+00  0.00000000E+00  7.68982288E-01  0.00000000E+00
  0.00000000E+00 -1.82206664E-02  0.00000000E+00  0.00000000E+00  2.61910381E-01
  0.00000000E+00  0.00000000E+00  8.63350789E-02  0.00000000E+00  0.00000000E+00
 -3.08142762E-02  0.00000000E+00  0.00000000E+00  4.45530069E-03 -8.92342413E-03
 -9.29666557E-03  1.67197096E-02  0.00000000E+00  0.00000000E+00  0.00000000E+00
 -1.81501921E-03 -1.79742963E-03 -8.36838666E-03  0.00000000E+00  0.00000000E+00
  0.00000000E+00  5.21699076E-03  5.19863409E-03  1.03463525E-02  0.00000000E+00
  0.00000000E+00  0.00000000E+00  0.00000000E+00  0.00000000E+00 -1.72912916E-02
  0.00000000E+00  0.00000000E+00 -8.76710419E-04  0.00000000E+00  0.00000000E+00
 -1.43256680E-05  0.00000000E+00 -3.77986858E-02  2.51760626E-02 -2.41700058E-02
  0.00000000E+00  0.00000000E+00 -3.00415488E-02  0.00000000E+00  0.00000000E+00
  1.40641845E-02  0.00000000E+00  0.00000000E+00 -8.55634987E-03  8.03179638E-04
  7.92235256E-04 -6.63936282E-03  0.00000000E+00  0.00000000E+00  0.00000000E+00
  0.00000000E+00  0.00000000E+00  0.00000000E+00  0.00000000E+00  0.00000000E+00
  0.00000000E+00  7.71971962E-01  0.00000000E+00  0.00000000E+00 -1.60043159E-02
  0.00000000E+00  0.00000000E+00  2.70485624E-01  0.00000000E+00  0.00000000E+00
  7.28543800E-02  0.00000000E+00  0.00000000E+00 -1.87200591E-02  0.00000000E+00
  0.00000000E+00  6.08173456E-03  0.00000000E+00  0.00000000E+00  0.00000000E+00
  0.00000000E+00  0.00000000E+00  0.00000000E+00 -1.97149523E-03  0.00000000E+00
  0.00000000E+00  0.00000000E+00  0.00000000E+00  0.00000000E+00  7.99983501E-03
  0.00000000E+00  0.00000000E+00  0.00000000E+00  0.00000000E+00  0.00000000E+00
 -9.99906497E-04  0.00000000E+00 -1.73287978E-02  0.00000000E+00  0.00000000E+00
 -1.20229820E-02  0.00000000E+00  0.00000000E+00  5.07955252E-03  0.00000000E+00
  0.00000000E+00  0.00000000E+00  0.00000000E+00  0.00000000E+00  0.00000000E+00
  3.27839928E-03  0.00000000E+00  0.00000000E+00  9.98594110E-04  0.00000000E+00
  0.00000000E+00 -4.95191935E-04  0.00000000E+00  0.00000000E+00  0.00000000E+00
  0.00000000E+00  0.00000000E+00  0.00000000E+00  1.65729060E-03  0.00000000E+00
  0.00000000E+00  0.00000000E+00  0.00000000E+00  0.00000000E+00  0.00000000E+00
  0.00000000E+00  0.00000000E+00  7.72550992E-01  0.00000000E+00  0.00000000E+00
 -1.59645358E-02  0.00000000E+00  0.00000000E+00  2.70156159E-01  0.00000000E+00
  0.00000000E+00  7.20495748E-02  0.00000000E+00  0.00000000E+00 -1.88047012E-02
  0.00000000E+00  0.00000000E+00  6.09683168E-03  0.00000000E+00  0.00000000E+00
  0.00000000E+00  0.00000000E+00  0.00000000E+00  0.00000000E+00 -2.05234820E-03
  0.00000000E+00  0.00000000E+00  0.00000000E+00  0.00000000E+00  0.00000000E+00
  8.12008264E-03  0.00000000E+00  0.00000000E+00  0.00000000E+00  0.00000000E+00
  0.00000000E+00 -1.01670529E-03  0.00000000E+00 -1.77860456E-02  0.00000000E+00
  0.00000000E+00 -1.20611947E-02  0.00000000E+00  0.00000000E+00  5.92343323E-03
  0.00000000E+00  0.00000000E+00  0.00000000E+00  0.00000000E+00  0.00000000E+00
  0.00000000E+00  3.25044247E-03  0.00000000E+00  0.00000000E+00  1.17231362E-03
  0.00000000E+00  0.00000000E+00 -5.52635414E-04  0.00000000E+00  0.00000000E+00
  0.00000000E+00  0.00000000E+00  0.00000000E+00  0.00000000E+00  1.69462191E-03
 -5.70271427E-02 -1.25018147E-02 -6.25820452E-02  5.32887982E-02 -2.11844368E-02
  2.30492516E-02  0.00000000E+00  0.00000000E+00  9.91910092E-02  0.00000000E+00
  0.00000000E+00  9.63343033E-03  0.00000000E+00  0.00000000E+00  2.59734912E-02
  0.00000000E+00  0.00000000E+00 -2.27072701E-02  0.00000000E+00  0.00000000E+00
  2.68721107E-02  0.00000000E+00  0.00000000E+00  1.40120981E-02 -5.33071740E-02
 -5.14414987E-02  1.01246825E-01  0.00000000E+00  0.00000000E+00  0.00000000E+00
 -2.42073234E-02 -2.41998452E-02  3.34369411E-02  0.00000000E+00  0.00000000E+00
  0.00000000E+00 -8.11568379E-03 -8.13297510E-03 -3.13267693E-02  0.00000000E+00
  0.00000000E+00  0.00000000E+00  0.00000000E+00  0.00000000E+00 -8.84190058E-03
  0.00000000E+00  0.00000000E+00  3.40543935E-03  0.00000000E+00  0.00000000E+00
  3.56103923E-03  0.00000000E+00  9.09831177E-01 -2.10692317E-02  1.14979182E-01
  0.00000000E+00  0.00000000E+00  7.34279079E-02  0.00000000E+00  0.00000000E+00
  6.53027808E-03  0.00000000E+00  0.00000000E+00  9.34576715E-03  4.43272052E-03
  4.54689259E-03  1.51760418E-02  0.00000000E+00  0.00000000E+00  0.00000000E+00
  0.00000000E+00  0.00000000E+00  0.00000000E+00  0.00000000E+00  0.00000000E+00
  0.00000000E+00  0.00000000E+00 -1.51772094E-02  0.00000000E+00  0.00000000E+00
 -6.36197536E-03  0.00000000E+00  0.00000000E+00  1.02421247E-03  0.00000000E+00
  0.00000000E+00  3.97902535E-02  0.00000000E+00  0.00000000E+00  1.46533638E-02
  0.00000000E+00  0.00000000E+00 -5.72616505E-03  0.00000000E+00  0.00000000E+00
  0.00000000E+00  0.00000000E+00  0.00000000E+00  0.00000000E+00  8.35433607E-01
  0.00000000E+00  0.00000000E+00  0.00000000E+00  0.00000000E+00  0.00000000E+00
  2.13496601E-01  0.00000000E+00  0.00000000E+00  0.00000000E+00  0.00000000E+00
  0.00000000E+00  4.17615273E-02  0.00000000E+00 -3.52598617E-04  0.00000000E+00
  0.00000000E+00 -1.32959738E-04  0.00000000E+00  0.00000000E+00  4.72984615E-03
  0.00000000E+00  0.00000000E+00  0.00000000E+00  0.00000000E+00  0.00000000E+00
  0.00000000E+00 -2.31531808E-01  0.00000000E+00  0.00000000E+00  8.32042647E-03
  0.00000000E+00  0.00000000E+00  1.44400103E-02  0.00000000E+00  0.00000000E+00
  0.00000000E+00  0.00000000E+00  0.00000000E+00  0.00000000E+00 -1.12210899E-02
  0.00000000E+00  0.00000000E+00  0.00000000E+00  0.00000000E+00  0.00000000E+00
  0.00000000E+00 -1.52014956E-02  0.00000000E+00  0.00000000E+00 -6.36277383E-03
  0.00000000E+00  0.00000000E+00  9.64332052E-04  0.00000000E+00  0.00000000E+00
  3.99132961E-02  0.00000000E+00  0.00000000E+00  1.49205060E-02  0.00000000E+00
  0.00000000E+00 -5.76219401E-03  0.00000000E+00  0.00000000E+00  0.00000000E+00
  0.00000000E+00  0.00000000E+00  0.00000000E+00  8.33287333E-01  0.00000000E+00
  0.00000000E+00  0.00000000E+00  0.00000000E+00  0.00000000E+00  2.14872962E-01
  0.00000000E+00  0.00000000E+00  0.00000000E+00  0.00000000E+00  0.00000000E+00
  4.24255864E-02  0.00000000E+00 -2.80214156E-04  0.00000000E+00  0.00000000E+00
 -1.52335372E-04  0.00000000E+00  0.00000000E+00  4.68563943E-03  0.00000000E+00
  0.00000000E+00  0.00000000E+00  0.00000000E+00  0.00000000E+00  0.00000000E+00
 -2.34236664E-01  0.00000000E+00  0.00000000E+00  8.12798563E-03  0.00000000E+00
  0.00000000E+00  1.44955031E-02  0.00000000E+00  0.00000000E+00  0.00000000E+00
  0.00000000E+00  0.00000000E+00  0.00000000E+00 -1.13145418E-02  0.00000000E+00
 -1.16841596E-03 -8.03347918E-04 -1.53180716E-03  1.70330621E-03  5.39040325E-03
  2.32511551E-04  0.00000000E+00  0.00000000E+00 -6.78929311E-04  0.00000000E+00
  0.00000000E+00 -1.31513911E-04  0.00000000E+00  0.00000000E+00 -2.89087144E-04
  0.00000000E+00  0.00000000E+00  1.40281276E-03  0.00000000E+00  0.00000000E+00
  1.27843714E-03  0.00000000E+00  0.00000000E+00  8.42697222E-04  7.73821810E-01
 -7.35813646E-01 -3.82060210E-02  0.00000000E+00  0.00000000E+00  0.00000000E+00
  2.10984731E-01 -1.99254937E-01 -1.15660461E-02  0.00000000E+00  0.00000000E+00
  0.00000000E+00  3.62990321E-02 -3.40368277E-02 -2.54500658E-03  0.00000000E+00
  0.00000000E+00  0.00000000E+00  0.00000000E+00  0.00000000E+00 -3.38080635E-05
  0.00000000E+00  0.00000000E+00  3.13054543E-03  0.00000000E+00  0.00000000E+00
 -3.06183163E-03  0.00000000E+00  7.91470851E-03  3.74831981E-03  6.19262590E-03
  0.00000000E+00  0.00000000E+00 -1.70871571E-02  0.00000000E+00  0.00000000E+00
  2.60121670E-03  0.00000000E+00  0.00000000E+00 -4.21502542E-04  2.58393808E-03
 -1.81793621E-03 -8.73933114E-04  0.00000000E+00  0.00000000E+00  0.00000000E+00
  0.00000000E+00  0.00000000E+00  0.00000000E+00  0.00000000E+00  0.00000000E+00
  0.00000000E+00  0.00000000E+00  0.00000000E+00  0.00000000E+00  0.00000000E+00
  0.00000000E+00  0.00000000E+00  0.00000000E+00  0.00000000E+00  0.00000000E+00
  0.00000000E+00  0.00000000E+00  0.00000000E+00  0.00000000E+00  0.00000000E+00
  0.00000000E+00  0.00000000E+00  0.00000000E+00  0.00000000E+00  0.00000000E+00
  0.00000000E+00  0.00000000E+00  8.61811452E-01  0.00000000E+00  0.00000000E+00
  0.00000000E+00  0.00000000E+00  0.00000000E+00  2.51010818E-01  0.00000000E+00
  0.00000000E+00  0.00000000E+00  0.00000000E+00  0.00000000E+00  4.95997071E-02
  0.00000000E+00  0.00000000E+00  0.00000000E+00  0.00000000E+00  0.00000000E+00
  0.00000000E+00  0.00000000E+00  0.00000000E+00  0.00000000E+00  0.00000000E+00
  0.00000000E+00  3.57211175E-03  0.00000000E+00  0.00000000E+00  0.00000000E+00
  0.00000000E+00  0.00000000E+00  0.00000000E+00  0.00000000E+00  0.00000000E+00
  0.00000000E+00  0.00000000E+00  0.00000000E+00  0.00000000E+00  0.00000000E+00
  0.00000000E+00  0.00000000E+00  2.79017091E-03  0.00000000E+00  0.00000000E+00
 -9.34808794E-02 -2.83467371E-02 -1.10677177E-01  9.79356289E-02  2.17765252E-01
 -2.91834641E-02  0.00000000E+00  0.00000000E+00  6.39493507E-02  0.00000000E+00
  0.00000000E+00  1.30515178E-02  0.00000000E+00  0.00000000E+00  8.70472005E-03
  0.00000000E+00  0.00000000E+00 -4.82644700E-02  0.00000000E+00  0.00000000E+00
  2.79032588E-03  0.00000000E+00  0.00000000E+00  1.11263264E-02 -1.72824462E-01
 -2.26532890E-01  3.92849515E-01  0.00000000E+00  0.00000000E+00  0.00000000E+00
 -6.68619930E-02 -8.49578102E-02  1.84905614E-01  0.00000000E+00  0.00000000E+00
  0.00000000E+00  1.09150735E-02  6.13654827E-03  4.12487744E-02  0.00000000E+00
  0.00000000E+00  0.00000000E+00  0.00000000E+00  0.00000000E+00 -8.93269043E-03
  0.00000000E+00  0.00000000E+00  4.19428167E-03  0.00000000E+00  0.00000000E+00
  4.11123431E-03  0.00000000E+00 -1.90124297E-01 -7.23462395E-02 -1.62433925E-01
  0.00000000E+00  0.00000000E+00  7.14930227E-01  0.00000000E+00  0.00000000E+00
 -1.33405717E-02  0.00000000E+00  0.00000000E+00  1.06071727E-02 -9.09772891E-03
 -9.38633344E-03  3.26652323E-02  0.00000000E+00  0.00000000E+00  0.00000000E+00
  0.00000000E+00  0.00000000E+00  0.00000000E+00  0.00000000E+00  0.00000000E+00
  0.00000000E+00  0.00000000E+00 -7.89961436E-02  0.00000000E+00  0.00000000E+00
 -1.14749364E-02  0.00000000E+00  0.00000000E+00 -3.98890028E-02  0.00000000E+00
  0.00000000E+00  6.99124413E-02  0.00000000E+00  0.00000000E+00  9.80633825E-02
  0.00000000E+00  0.00000000E+00  3.77125041E-02  0.00000000E+00  0.00000000E+00
  0.00000000E+00  0.00000000E+00  0.00000000E+00  0.00000000E+00  2.93529737E-01
  0.00000000E+00  0.00000000E+00  0.00000000E+00  0.00000000E+00  0.00000000E+00
  5.06481909E-02  0.00000000E+00  0.00000000E+00  0.00000000E+00  0.00000000E+00
  0.00000000E+00  1.70540264E-02  0.00000000E+00  1.05504696E-03  0.00000000E+00
  0.00000000E+00  8.27511508E-04  0.00000000E+00  0.00000000E+00  1.03900347E-02
  0.00000000E+00  0.00000000E+00  0.00000000E+00  0.00000000E+00  0.00000000E+00
  0.00000000E+00  8.17792315E-01  0.00000000E+00  0.00000000E+00  8.20174029E-02
  0.00000000E+00  0.00000000E+00  7.62636935E-02  0.00000000E+00  0.00000000E+00
  0.00000000E+00  0.00000000E+00  0.00000000E+00  0.00000000E+00  1.66402090E-02
  0.00000000E+00  0.00000000E+00  0.00000000E+00  0.00000000E+00  0.00000000E+00
  0.00000000E+00 -7.98626612E-02  0.00000000E+00  0.00000000E+00 -1.16046311E-02
  0.00000000E+00  0.00000000E+00 -4.03031125E-02  0.00000000E+00  0.00000000E+00
  7.08429034E-02  0.00000000E+00  0.00000000E+00  9.97573200E-02  0.00000000E+00
  0.00000000E+00  3.84998075E-02  0.00000000E+00  0.00000000E+00  0.00000000E+00
  0.00000000E+00  0.00000000E+00  0.00000000E+00  2.95524466E-01  0.00000000E+00
  0.00000000E+00  0.00000000E+00  0.00000000E+00  0.00000000E+00  5.18666844E-02
  0.00000000E+00  0.00000000E+00  0.00000000E+00  0.00000000E+00  0.00000000E+00
  1.78131814E-02  0.00000000E+00  1.22491933E-03  0.00000000E+00  0.00000000E+00
  7.37292640E-04  0.00000000E+00  0.00000000E+00  1.04102947E-02  0.00000000E+00
  0.00000000E+00  0.00000000E+00  0.00000000E+00  0.00000000E+00  0.00000000E+00
  8.15588754E-01  0.00000000E+00  0.00000000E+00  8.21816035E-02  0.00000000E+00
  0.00000000E+00  7.69949097E-02  0.00000000E+00  0.00000000E+00  0.00000000E+00
  0.00000000E+00  0.00000000E+00  0.00000000E+00  1.66128158E-02  0.00000000E+00
 -8.37486515E-02 -1.59789035E-02 -1.31918332E-01 -6.42343860E-02 -4.38253013E-01
  2.06709159E+00  0.00000000E+00  0.00000000E+00 -8.59718810E-02  0.00000000E+00
  0.00000000E+00 -1.18431062E-02  0.00000000E+00  0.00000000E+00 -5.00432912E-02
  0.00000000E+00  0.00000000E+00  6.64644626E-02  0.00000000E+00  0.00000000E+00
  1.70539282E-01  0.00000000E+00  0.00000000E+00  3.81062001E-01  4.07499706E-02
  6.12439825E-02 -1.08154875E-01  0.00000000E+00  0.00000000E+00  0.00000000E+00
 -6.64184422E-03  8.81184854E-04 -6.38492548E-02  0.00000000E+00  0.00000000E+00
  0.00000000E+00 -3.88555676E-01 -3.83743537E-01 -3.70558418E-01  0.00000000E+00
  0.00000000E+00  0.00000000E+00  0.00000000E+00  0.00000000E+00  7.25291628E-03
  0.00000000E+00  0.00000000E+00  2.17191799E-03  0.00000000E+00  0.00000000E+00
  2.13000679E-03  0.00000000E+00 -4.09066446E-02 -1.97960653E-02  1.20005480E-01
  0.00000000E+00  0.00000000E+00 -1.35466820E-01  0.00000000E+00  0.00000000E+00
  1.63041277E-03  0.00000000E+00  0.00000000E+00 -8.21884193E-03  2.36807188E-03
  2.46333720E-03 -4.77148504E-03  0.00000000E+00  0.00000000E+00  0.00000000E+00
  0.00000000E+00  0.00000000E+00  0.00000000E+00  0.00000000E+00  0.00000000E+00
  0.00000000E+00  0.00000000E+00 -3.71404506E-02  0.00000000E+00  0.00000000E+00
 -1.08962201E-02  0.00000000E+00  0.00000000E+00 -8.09207225E-02  0.00000000E+00
  0.00000000E+00  1.34877271E-01  0.00000000E+00  0.00000000E+00 -2.36205784E-01
  0.00000000E+00  0.00000000E+00  1.20133078E+00  0.00000000E+00  0.00000000E+00
  0.00000000E+00  0.00000000E+00  0.00000000E+00  0.00000000E+00 -1.27345095E-01
  0.00000000E+00  0.00000000E+00  0.00000000E+00  0.00000000E+00  0.00000000E+00
 -2.47642014E-02  0.00000000E+00  0.00000000E+00  0.00000000E+00  0.00000000E+00
  0.00000000E+00  1.97582397E-01  0.00000000E+00  1.52073064E-02  0.00000000E+00
  0.00000000E+00  7.04893084E-03  0.00000000E+00  0.00000000E+00  4.41176771E-03
  0.00000000E+00  0.00000000E+00  0.00000000E+00  0.00000000E+00  0.00000000E+00
  0.00000000E+00 -1.91245139E-01  0.00000000E+00  0.00000000E+00  2.89255560E-02
  0.00000000E+00  0.00000000E+00 -2.16289782E-01  0.00000000E+00  0.00000000E+00
  0.00000000E+00  0.00000000E+00  0.00000000E+00  0.00000000E+00 -6.56091411E-04
  0.00000000E+00  0.00000000E+00  0.00000000E+00  0.00000000E+00  0.00000000E+00
  0.00000000E+00 -3.72992991E-02  0.00000000E+00  0.00000000E+00 -1.09214586E-02
  0.00000000E+00  0.00000000E+00 -8.10853654E-02  0.00000000E+00  0.00000000E+00
  1.35441431E-01  0.00000000E+00  0.00000000E+00 -2.36613006E-01  0.00000000E+00
  0.00000000E+00  1.20155453E+00  0.00000000E+00  0.00000000E+00  0.00000000E+00
  0.00000000E+00  0.00000000E+00  0.00000000E+00 -1.28943690E-01  0.00000000E+00
  0.00000000E+00  0.00000000E+00  0.00000000E+00  0.00000000E+00 -2.55184160E-02
  0.00000000E+00  0.00000000E+00  0.00000000E+00  0.00000000E+00  0.00000000E+00
  1.97078710E-01  0.00000000E+00  1.53624365E-02  0.00000000E+00  0.00000000E+00
  6.95398665E-03  0.00000000E+00  0.00000000E+00  4.36537672E-03  0.00000000E+00
  0.00000000E+00  0.00000000E+00  0.00000000E+00  0.00000000E+00  0.00000000E+00
 -1.93175916E-01  0.00000000E+00  0.00000000E+00  2.85802803E-02  0.00000000E+00
  0.00000000E+00 -2.17232389E-01  0.00000000E+00  0.00000000E+00  0.00000000E+00
  0.00000000E+00  0.00000000E+00  0.00000000E+00 -6.65759920E-04  0.00000000E+00
  7.54633773E-02  2.31824356E-02  6.14399419E-02 -6.80797643E-02  3.41080972E-01
  1.51465953E-01  0.00000000E+00  0.00000000E+00 -4.81088388E-02  0.00000000E+00
  0.00000000E+00 -1.33412655E-02  0.00000000E+00  0.00000000E+00 -8.38404243E-02