Siesta Version:                                        siesta-3.1
Architecture  : i686-apple-darwin11.2.0--unknown
Compiler flags: g95 -g -O2
SERIAL version

* Running in serial mode
>> Start of run:  20-AUG-2012  10:26:54

                           ***********************       
                           *  WELCOME TO SIESTA  *       
                           ***********************       

reinit: Reading from standard input
************************** Dump of input data file ****************************
NumberOfAtoms 8
SpinPolarized yes
NumberOfSpecies 1
WriteDenchar .true.
%block ChemicalSpeciesLabel
 1  14  Si
%endblock ChemicalSpeciesLabel
%block PAO.Basis
Si   2    splitgauss
 n=3   0   3
     9.0 9.0 9.0
     1.0 1.0 1.5
 n=3   1   3  P
     9.0 9.0 9.0
     1.0 1.0 1.5
%endblock PAO.Basis
MeshCutoff          200.0 Ry
MaxSCFIterations    100
DM.MixingWeight      0.3
DM.NumberPulay       3
DM.Tolerance         1.d-3
%block WaveFuncKPoints
0.0 0.0 0.0 from 1 to 32
1.0 0.0 0.0 from 1 to 32
1.0 1.0 0.0 from 1 to 32
1.0 1.0 1.0 from 1 to 32
%endblock WaveFuncKPoints
LongOutput .true.
LatticeConstant 5.430 Ang
AtomicCoordinatesFormat ScaledCartesian
%block LatticeVectors
  0.00   1.00 0.00
  1.00   0.00 0.00
  0.00   0.00  1.00
%endblock LatticeVectors
%block kgrid_Monkhorst_Pack
2 0 0 0.
0 2 0 0.
0 0 2 0.
%endblock kgrid_Monkhorst_Pack
%block AtomicCoordinatesAndAtomicSpecies
0. 0. 0. 1
0.5 0.5 0.  1
0.  0.5 .5 1
.5  0.  .5  1
.25 .25 .25 1
0.75 0.75 0.25 1
0.25 .75 .75 1
.75 .25 .75 1
%endblock AtomicCoordinatesAndAtomicSpecies
************************** End of input data file *****************************

reinit: -----------------------------------------------------------------------
reinit: System Name: 
reinit: -----------------------------------------------------------------------
reinit: System Label: siesta                                                      
reinit: -----------------------------------------------------------------------

initatom: Reading input for the pseudopotentials and atomic orbitals ----------
 Species number:  1  Label: Si Atomic number: 14
Ground state valence configuration:   3s02  3p02
Reading pseudopotential information in formatted form from Si.psf
 npotd 4 nr 1074 zval 4.
 read_ps_conf

Valence configuration for pseudopotential generation:
3s( 2.00) rc: 1.89
3p( 2.00) rc: 1.89
3d( 0.00) rc: 1.89
4f( 0.00) rc: 1.89
 reading r 1075
 0. 0.00000222706172396 119.814078162
 reading potential down 4
 reading: Down Pseudopotential follows (l on next line)                          0
 done
 reading: Down Pseudopotential follows (l on next line)                          1
 done
 reading: Down Pseudopotential follows (l on next line)                          2
 done
 reading: Down Pseudopotential follows (l on next line)                          3
 done
 reading core
For Si, standard SIESTA heuristics set lmxkb to 3
 (one more than the basis l, including polarization orbitals).
Use PS.lmax or PS.KBprojectors blocks to override.

<basis_specs>
===============================================================================
Si                   Z=  14    Mass=  28.090        Charge= 0.17977+309
Lmxo=1 Lmxkb= 3    BasisType=splitgauss Semic=F
L=0  Nsemic=0  Cnfigmx=3
          n=1  nzeta=3  polorb=0
            splnorm:   0.15000    
               vcte:    0.0000    
               rinn:    0.0000    
                rcs:    9.0000      9.0000      9.0000    
            lambdas:    1.0000      1.0000      1.5000    
L=1  Nsemic=0  Cnfigmx=3
          n=1  nzeta=3  polorb=1
            splnorm:   0.15000    
               vcte:    0.0000    
               rinn:    0.0000    
                rcs:    9.0000      9.0000      9.0000    
            lambdas:    1.0000      1.0000      1.5000    
-------------------------------------------------------------------------------
L=0  Nkbl=1  erefs: 0.17977+309
L=1  Nkbl=1  erefs: 0.17977+309
L=2  Nkbl=1  erefs: 0.17977+309
L=3  Nkbl=1  erefs: 0.17977+309
===============================================================================
</basis_specs>

atom: Called for Si                    (Z =  14)

read_vps: Pseudopotential generation method:
read_vps: ATM 3.2.2 Troullier-Martins                       
Total valence charge:    4.00000

xc_check: Exchange-correlation functional:
xc_check: Ceperley-Alder
xc_check: WARNING: Pseudopotential generated with GGA Perdew, Burke & Ernzerhof 1996 functional
V l=0 = -2*Zval/r beyond r=  2.7826
V l=1 = -2*Zval/r beyond r=  2.7826
V l=2 = -2*Zval/r beyond r=  2.7826
V l=3 = -2*Zval/r beyond r=  2.7826
All V_l potentials equal beyond r=  1.8652
This should be close to max(r_c) in ps generation
All pots = -2*Zval/r beyond r=  2.7826
Using large-core scheme for Vlocal

atom: Estimated core radius    2.78258

atom: Including non-local core corrections could be a good idea
atom: Maximum radius for 4*pi*r*r*local-pseudopot. charge    3.07525
atom: Maximum radius for r*vlocal+2*Zval:    2.81758
GHOST: No ghost state for L =  0
GHOST: No ghost state for L =  1
GHOST: No ghost state for L =  2
GHOST: No ghost state for L =  3

KBgen: Kleinman-Bylander projectors: 
   l= 0   rc=  1.936440   el= -0.780935   Ekb=  4.551162   kbcos=  0.300463
   l= 1   rc=  1.936440   el= -0.296027   Ekb=  1.475473   kbcos=  0.298846
   l= 2   rc=  1.936440   el=  0.002313   Ekb= -2.870024   kbcos= -0.050710
   l= 3   rc=  1.936440   el=  0.003402   Ekb= -0.889131   kbcos= -0.005315

KBgen: Total number of  Kleinman-Bylander projectors:   16
atom: -------------------------------------------------------------------------

atom: SANKEY-TYPE ORBITALS:
atom: Selected multiple-zeta basis: splitgauss

SPLITGAUSS: Orbitals with angular momentum L= 0

SPLITGAUSS: Basis orbitals for state 3s

   izeta = 1
                 lambda =    1.000000
                     rc =    9.124137
                 energy =   -0.780950
                kinetic =    0.493843
    potential(screened) =   -1.274794
       potential(ionic) =   -3.697800

   izeta= 2
       gaussian exponent=    1.000000
                      rc=    9.124137
                  energy=    3.817070
                kinetic =    3.000000
    potential(screened) =    0.817070
       potential(ionic) =   -2.283460

   izeta= 3
       gaussian exponent=    0.444444
                      rc=    9.124137
                  energy=    0.743512
                kinetic =    1.333333
    potential(screened) =   -0.589821
       potential(ionic) =   -3.491327

SPLITGAUSS: Orbitals with angular momentum L= 1

SPLITGAUSS: Basis orbitals for state 3p

   izeta = 1
                 lambda =    1.000000
                     rc =    9.124137
                 energy =   -0.295064
                kinetic =    0.755854
    potential(screened) =   -1.050919
       potential(ionic) =   -3.223003

   izeta= 2
       gaussian exponent=    1.000000
                      rc=    9.124137
                  energy=    2.783175
                kinetic =    5.000000
    potential(screened) =   -2.216825
       potential(ionic) =   -5.187120

   izeta= 3
       gaussian exponent=    0.444444
                      rc=    9.124137
                  energy=    0.318951
                kinetic =    2.222222
    potential(screened) =   -1.903272
       potential(ionic) =   -4.605102

POLgen: Perturbative polarization orbital with L=  2

POLgen: Polarization orbital for state 3p

   izeta = 1
                     rc =    9.124137
                 energy =    0.295539
                kinetic =    0.994626
    potential(screened) =   -0.699087
       potential(ionic) =   -2.600041
atom: Total number of Sankey-type orbitals: 17

atm_pop: Valence configuration (for local Pseudopot. screening):
 3s( 2.00)                                                            
 3p( 2.00)                                                            
Vna: chval, zval:    4.00000   4.00000

Vna:  Cut-off radius for the neutral-atom potential:   9.124137

atom: _________________________________________________________________________

prinput: Basis input ----------------------------------------------------------

PAO.BasisType split     

%block ChemicalSpeciesLabel
    1   14 Si                      # Species index, atomic number, species label
%endblock ChemicalSpeciesLabel

%block PAO.Basis                 # Define Basis set
Si                    2 splitgauss          # Species label, l-shells, basis type 
 n=3   0   3                         # n, l, Nzeta 
   9.124      9.124      9.124   
   1.000      1.000      1.000   
 n=3   1   3 P   1                   # n, l, Nzeta, Polarization, NzetaPol
   9.124      9.124      9.124   
   1.000      1.000      1.000   
%endblock PAO.Basis

prinput: ----------------------------------------------------------------------

coor:   Atomic-coordinates input format  =     Cartesian coordinates
coor:                                          (in units of alat)

siesta: Atomic coordinates (Bohr) and species
siesta:      0.00000   0.00000   0.00000  1        1
siesta:      5.13061   5.13061   0.00000  1        2
siesta:      0.00000   5.13061   5.13061  1        3
siesta:      5.13061   0.00000   5.13061  1        4
siesta:      2.56530   2.56530   2.56530  1        5
siesta:      7.69591   7.69591   2.56530  1        6
siesta:      2.56530   7.69591   7.69591  1        7
siesta:      7.69591   2.56530   7.69591  1        8

siesta: System type = bulk      

initatomlists: Number of atoms, orbitals, and projectors:      8   136   128

siesta: ******************** Simulation parameters ****************************
siesta:
siesta: The following are some of the parameters of the simulation.
siesta: A complete list of the parameters used, including default values,
siesta: can be found in file out.fdf
siesta:
redata: Non-Collinear-spin run           =     F
redata: SpinPolarized (Up/Down) run      =     T
redata: Number of spin components        =     2
redata: Long output                      =     T
redata: Number of Atomic Species         =        1
redata: Charge density info will appear in .RHO file
redata: Write Mulliken Pop.              =     Atomic and Orbital charges
redata: Mesh Cutoff                      =   200.0000  Ry
redata: Net charge of the system         =     0.0000 |e|
redata: Max. number of SCF Iter          =      100
redata: Performing Pulay mixing using    =     3 iterations
redata: Mix DM in first SCF step ?       =     F
redata: Write Pulay info on disk?        =     F
redata: Discard 1st Pulay DM after  kick =     F
redata: New DM Mixing Weight             =     0.3000
redata: New DM Occupancy tolerance       = 0.000000000001
redata: No kicks to SCF
redata: DM Mixing Weight for Kicks       =     0.5000
redata: DM Tolerance for SCF             =     0.001000
redata: Require Energy convergence for SCF =     F
redata: DM Energy tolerance for SCF      =     0.000100 eV
redata: Require Harris convergence for SCF =     F
redata: DM Harris energy tolerance for SCF =     0.000100 eV
redata: Antiferro initial spin density   =     F
redata: Using Saved Data (generic)   =     F
redata: Use continuation files for DM    =     F
redata: Neglect nonoverlap interactions  =     F
redata: Method of Calculation            =     Diagonalization
redata: Divide and Conquer               =     T
redata: Electronic Temperature           =     0.0019  Ry
redata: Fix the spin of the system       =     F
redata: Dynamics option                  =     Verlet MD run
redata: Initial MD time step             =        1
redata:   Final MD time step             =        1
redata: Length of MD time step           =     1.0000  fs
redata: Initial Temperature of MD run    =     0.0000  K
redata: Perform a MD quench              =     F
redata: ***********************************************************************
Total number of electrons:    32.000000
Total ionic charge:    32.000000
k-point displ. along   1 input, could be:     0.00    0.50
k-point displ. along   2 input, could be:     0.00    0.50
k-point displ. along   3 input, could be:     0.00    0.50
 Kpoints in:  8 . Kpoints trimmed:  8

siesta: k-point coordinates (Bohr**-1) and weights:
siesta:    1    0.000000    0.000000    0.000000       0.125000
siesta:    2    0.000000    0.306162    0.000000       0.125000
siesta:    3    0.306162    0.000000    0.000000       0.125000
siesta:    4    0.306162    0.306162    0.000000       0.125000
siesta:    5    0.000000    0.000000    0.306162       0.125000
siesta:    6    0.000000    0.306162    0.306162       0.125000
siesta:    7    0.306162    0.000000    0.306162       0.125000
siesta:    8    0.306162    0.306162    0.306162       0.125000

siesta: k-grid: Number of k-points =     8
siesta: k-grid: Cutoff (effective) =     5.430 Ang
siesta: k-grid: Supercell and displacements
siesta: k-grid:    2   0   0      0.000
siesta: k-grid:    0   2   0      0.000
siesta: k-grid:    0   0   2      0.000
Naive supercell factors:     5    5    5

superc: Internal auxiliary supercell:     5 x     5 x     5  =     125
superc: Number of atoms, orbitals, and projectors:   1000  17000  16000

* Maximum dynamic memory allocated =     1 MB

siesta:                 ==============================
                            Begin MD step =      1
                        ==============================

outcoor: Atomic coordinates (scaled):                       
    0.00000000    0.00000000    0.00000000   1       1  Si
    0.50000000    0.50000000    0.00000000   1       2  Si
    0.00000000    0.50000000    0.50000000   1       3  Si
    0.50000000    0.00000000    0.50000000   1       4  Si
    0.25000000    0.25000000    0.25000000   1       5  Si
    0.75000000    0.75000000    0.25000000   1       6  Si
    0.25000000    0.75000000    0.75000000   1       7  Si
    0.75000000    0.25000000    0.75000000   1       8  Si

superc: Internal auxiliary supercell:     5 x     5 x     5  =     125
superc: Number of atoms, orbitals, and projectors:   1000  17000  16000

outcell: Unit cell vectors (Ang):
        0.000000    5.430000    0.000000
        5.430000    0.000000    0.000000
        0.000000    0.000000    5.430000

outcell: Cell vector modules (Ang)   :    5.430000    5.430000    5.430000
outcell: Cell angles (23,13,12) (deg):     90.0000     90.0000     90.0000
outcell: Cell volume (Ang**3)        :    160.1030
New_DM. Step:     1
Initializing Density Matrix...

InitMesh: MESH =    48 x    48 x    48 =      110592
InitMesh: Mesh cutoff (required, used) =   200.000   215.966 Ry

* Maximum dynamic memory allocated =   359 MB

stepf: Fermi-Dirac step function

siesta: Program's energy decomposition (eV):
siesta: Ebs     =      -373.463282
siesta: Eions   =      1494.146185
siesta: Ena     =       461.915468
siesta: Ekin    =       272.060105
siesta: Enl     =       136.997268
siesta: DEna    =         0.000001
siesta: DUscf   =         0.000000
siesta: DUext   =         0.000000
siesta: Exc     =      -261.340635
siesta: eta*DQ  =         0.000000
siesta: Emadel  =         0.000000
siesta: Emeta   =         0.000000
siesta: Emolmec =         0.000000
siesta: Ekinion =         0.000000
siesta: Eharris =      -846.326105
siesta: Etot    =      -884.513977
siesta: FreeEng =      -884.513977

siesta: iscf   Eharris(eV)      E_KS(eV)   FreeEng(eV)   dDmax  Ef(eV)
siesta:    1     -846.3261     -884.5140     -884.5140  0.5517 -6.5468
timer: Routine,Calls,Time,% = IterSCF        1     219.588  99.41
elaps: Routine,Calls,Wall,% = IterSCF        1     219.855  99.39
siesta:    2     -853.4510     -853.0312     -853.0446  0.0276 -5.9368
siesta:    3     -853.4407     -853.3257     -853.3257  0.0197 -5.9578
siesta:    4     -853.4465     -853.4574     -853.4575  0.0016 -5.9905
siesta:    5     -853.4459     -853.4134     -853.4134  0.0007 -5.9864

siesta: E_KS(eV) =             -853.3997

siesta: E_KS - E_eggbox =      -853.3997

siesta: Atomic forces (eV/Ang):
     1    0.000007   -0.000003    0.000015
     2   -0.000001    0.000001    0.000011
     3    0.000000   -0.000003    0.000002
     4   -0.000005    0.000001    0.000000
     5   -0.000001    0.000001   -0.000002
     6   -0.000007    0.000001    0.000002
     7    0.000004   -0.000005   -0.000004
     8   -0.000008    0.000009   -0.000008
----------------------------------------
   Tot   -0.000011    0.000002    0.000015
----------------------------------------
   Max    0.000015
   Res    0.000006    sqrt( Sum f_i^2 / 3N )
----------------------------------------
   Max    0.000015    constrained

Stress-tensor-Voigt (kbar):      -35.02      -35.02      -35.02        0.00        0.00       -0.00
(Free)E + p*V (eV/cell)     -849.9000
Target enthalpy (eV/cell)     -853.3997

siesta: Stress tensor (static) (eV/Ang**3):
        -0.021859    0.000000   -0.000000
         0.000000   -0.021859    0.000000
        -0.000000    0.000000   -0.021859

siesta: Pressure (static):         35.02226660  kBar

siesta: Stress tensor (total) (eV/Ang**3):
        -0.021859    0.000000   -0.000000
         0.000000   -0.021859    0.000000
        -0.000000    0.000000   -0.021859

siesta: Pressure (total):         35.02226660  kBar

mulliken: Atomic and Orbital Populations:

mulliken: Spin UP 

Species: Si                  
Atom  Qatom  Qorb
               3s      3s      3s      3py     3pz     3px     3py     3pz     
               3px     3py     3pz     3px     3Pdxy   3Pdyz   3Pdz2   3Pdxz   
               3Pdx2-y2
   1  1.999   0.614  -0.024   0.043   0.334   0.334   0.334  -0.007  -0.007
             -0.007   0.055   0.055   0.055   0.047   0.047   0.040   0.047

              0.040
   2  1.999   0.614  -0.024   0.043   0.334   0.334   0.334  -0.007  -0.007
             -0.007   0.055   0.055   0.055   0.047   0.047   0.040   0.047

              0.040
   3  1.999   0.614  -0.024   0.043   0.334   0.334   0.334  -0.007  -0.007
             -0.007   0.055   0.055   0.055   0.047   0.047   0.040   0.047

              0.040
   4  1.999   0.614  -0.024   0.043   0.334   0.334   0.334  -0.007  -0.007
             -0.007   0.055   0.055   0.055   0.047   0.047   0.040   0.047

              0.040
   5  1.999   0.614  -0.024   0.043   0.334   0.334   0.334  -0.007  -0.007
             -0.007   0.055   0.055   0.055   0.047   0.047   0.040   0.047

              0.040
   6  1.999   0.614  -0.024   0.043   0.334   0.334   0.334  -0.007  -0.007
             -0.007   0.055   0.055   0.055   0.047   0.047   0.040   0.047

              0.040
   7  1.999   0.614  -0.024   0.043   0.334   0.334   0.334  -0.007  -0.007
             -0.007   0.055   0.055   0.055   0.047   0.047   0.040   0.047

              0.040
   8  1.999   0.614  -0.024   0.043   0.334   0.334   0.334  -0.007  -0.007
             -0.007   0.055   0.055   0.055   0.047   0.047   0.040   0.047

              0.040

mulliken: Qtot =       15.989

mulliken: Spin DOWN 

Species: Si                  
Atom  Qatom  Qorb
               3s      3s      3s      3py     3pz     3px     3py     3pz     
               3px     3py     3pz     3px     3Pdxy   3Pdyz   3Pdz2   3Pdxz   
               3Pdx2-y2
   1  2.001   0.614  -0.024   0.043   0.335   0.335   0.335  -0.007  -0.007
             -0.007   0.055   0.055   0.055   0.046   0.046   0.040   0.046

              0.040
   2  2.001   0.614  -0.024   0.043   0.335   0.335   0.335  -0.007  -0.007
             -0.007   0.055   0.055   0.055   0.046   0.046   0.040   0.046

              0.040
   3  2.001   0.614  -0.024   0.043   0.335   0.335   0.335  -0.007  -0.007
             -0.007   0.055   0.055   0.055   0.046   0.046   0.040   0.046

              0.040
   4  2.001   0.614  -0.024   0.043   0.335   0.335   0.335  -0.007  -0.007
             -0.007   0.055   0.055   0.055   0.046   0.046   0.040   0.046

              0.040
   5  2.001   0.614  -0.024   0.043   0.335   0.335   0.335  -0.007  -0.007
             -0.007   0.055   0.055   0.055   0.046   0.046   0.040   0.046

              0.040
   6  2.001   0.614  -0.024   0.043   0.335   0.335   0.335  -0.007  -0.007
             -0.007   0.055   0.055   0.055   0.046   0.046   0.040   0.046

              0.040
   7  2.001   0.614  -0.024   0.043   0.335   0.335   0.335  -0.007  -0.007
             -0.007   0.055   0.055   0.055   0.046   0.046   0.040   0.046

              0.040
   8  2.001   0.614  -0.024   0.043   0.335   0.335   0.335  -0.007  -0.007
             -0.007   0.055   0.055   0.055   0.046   0.046   0.040   0.046

              0.040

mulliken: Qtot =       16.011

siesta: Temp_ion =       0.000 K

* Maximum dynamic memory allocated =   364 MB

writewave: Wave Functions Coefficients

     Number of k-points =        4
        Number of Spins =        2
   Number of basis orbs =      136


                                                                  ******
            k-point =        1    0.000000  0.000000  0.000000
     Spin component =        1
 Num. wavefunctions =       32
Use readwfsx utility to print wavefunction coefficients from WFSX file

                                                                  ******
            k-point =        1    0.000000  0.000000  0.000000
     Spin component =        2
 Num. wavefunctions =       32
Use readwfsx utility to print wavefunction coefficients from WFSX file

                                                                  ******
            k-point =        2    0.306162  0.000000  0.000000
     Spin component =        1
 Num. wavefunctions =       32
Use readwfsx utility to print wavefunction coefficients from WFSX file

                                                                  ******
            k-point =        2    0.306162  0.000000  0.000000
     Spin component =        2
 Num. wavefunctions =       32
Use readwfsx utility to print wavefunction coefficients from WFSX file

                                                                  ******
            k-point =        3    0.306162  0.306162  0.000000
     Spin component =        1
 Num. wavefunctions =       32
Use readwfsx utility to print wavefunction coefficients from WFSX file

                                                                  ******
            k-point =        3    0.306162  0.306162  0.000000
     Spin component =        2
 Num. wavefunctions =       32
Use readwfsx utility to print wavefunction coefficients from WFSX file

                                                                  ******
            k-point =        4    0.306162  0.306162  0.306162
     Spin component =        1
 Num. wavefunctions =       32
Use readwfsx utility to print wavefunction coefficients from WFSX file

                                                                  ******
            k-point =        4    0.306162  0.306162  0.306162
     Spin component =        2
 Num. wavefunctions =       32
Use readwfsx utility to print wavefunction coefficients from WFSX file

siesta: Eigenvalues (eV):
  ik is    eps
   1  1 -18.36 -14.20 -14.20 -14.20 -14.20 -14.20 -14.20  -9.27  -9.27  -9.27
         -9.27  -9.27  -9.27  -6.31  -6.31  -6.31  -5.65  -5.65  -5.65  -5.65
         -5.65  -5.65  -3.77  -3.77  -3.77  -2.96   1.72   1.72   3.82   3.82
          3.82   3.82   3.82   3.82   5.52   5.52   5.52   5.52   5.52   5.52
          6.45   6.45   6.45   6.78   6.78   6.78   6.78   6.78   6.78   7.11
          7.11   7.11   7.11   7.11   7.11  10.55  17.57  17.57  17.57  17.57
         17.57  17.57  17.60  17.60  17.60  17.60  17.60  17.60  19.49  19.49
         19.85  19.85  19.85  19.85  19.85  19.85  19.85  19.85  19.85  21.73
         21.73  21.73  21.73  21.73  21.73  32.70  32.70  32.70  36.64  36.64
         36.64  37.18  37.18  37.18  37.18  37.18  37.18  40.10  52.66  52.66
         52.66  52.66  52.66  52.66  60.19  69.79  71.04  71.04  71.04  71.04
         71.04  71.04  75.27  75.27  75.27  75.27  75.27  75.27  81.32  81.32
         81.32  81.32  81.32  81.32  86.80  86.80  86.80  89.74  89.74  89.74
         92.58  92.58  92.58  92.58  92.58  92.58
   1  2 -18.36 -14.20 -14.20 -14.20 -14.20 -14.20 -14.20  -9.27  -9.27  -9.27
         -9.27  -9.27  -9.27  -6.31  -6.31  -6.31  -5.65  -5.65  -5.65  -5.65
         -5.65  -5.65  -3.76  -3.76  -3.76  -2.96   1.72   1.72   3.82   3.82
          3.82   3.82   3.82   3.82   5.52   5.52   5.52   5.52   5.52   5.52
          6.45   6.45   6.45   6.79   6.79   6.79   6.79   6.79   6.79   7.11
          7.11   7.11   7.11   7.11   7.11  10.55  17.57  17.57  17.57  17.57
         17.57  17.57  17.60  17.60  17.60  17.60  17.60  17.60  19.49  19.49
         19.85  19.85  19.85  19.85  19.85  19.85  19.85  19.85  19.85  21.73
         21.73  21.73  21.73  21.73  21.73  32.70  32.70  32.70  36.64  36.64
         36.64  37.18  37.18  37.18  37.18  37.18  37.18  40.10  52.66  52.66
         52.66  52.66  52.66  52.66  60.19  69.79  71.04  71.04  71.04  71.04
         71.04  71.04  75.27  75.27  75.27  75.27  75.27  75.27  81.32  81.32
         81.32  81.32  81.32  81.32  86.80  86.80  86.80  89.74  89.74  89.74
         92.58  92.58  92.58  92.58  92.58  92.58
   2  1 -17.28 -17.28 -14.02 -14.02 -14.02 -14.02 -10.30 -10.30 -10.30 -10.30
         -9.86  -9.86  -8.28  -8.28  -8.28  -8.28  -5.25  -5.25  -3.18  -3.18
         -2.04  -2.04  -2.04  -2.04  -1.27  -1.27  -1.27  -1.27  -0.46  -0.46
         -0.46  -0.46   1.78   1.78   2.93   2.93   4.54   4.54   4.54   4.54
          7.31   7.31   7.31   7.31   7.83   7.83   7.83   7.83   9.73   9.73
         10.72  10.72  13.15  13.15  13.15  13.15  13.63  13.63  14.72  14.72
         14.72  14.72  14.99  14.99  15.24  15.24  15.24  15.24  16.21  16.21
         16.21  16.21  19.91  19.91  19.91  19.91  21.86  21.86  22.85  22.85
         22.85  22.85  27.99  27.99  27.99  27.99  29.25  29.25  37.66  37.66
         37.66  37.66  38.36  38.36  38.36  38.36  46.27  46.27  46.38  46.38
         49.30  49.30  49.30  49.30  66.82  66.82  71.21  71.21  71.21  71.21
         73.55  73.55  74.80  74.80  74.80  74.80  78.43  78.43  78.43  78.43
         80.07  80.07  81.87  81.87  81.87  81.87  82.23  82.23  88.04  88.04
         88.04  88.04  92.67  92.67  92.67  92.67
   2  2 -17.28 -17.28 -14.02 -14.02 -14.02 -14.02 -10.30 -10.30 -10.30 -10.30
         -9.86  -9.86  -8.28  -8.28  -8.28  -8.28  -5.25  -5.25  -3.18  -3.18
         -2.04  -2.04  -2.04  -2.04  -1.27  -1.27  -1.27  -1.27  -0.46  -0.46
         -0.46  -0.46   1.78   1.78   2.93   2.93   4.54   4.54   4.54   4.54
          7.31   7.31   7.31   7.31   7.83   7.83   7.83   7.83   9.73   9.73
         10.72  10.72  13.15  13.15  13.15  13.15  13.63  13.63  14.72  14.72
         14.72  14.72  14.99  14.99  15.24  15.24  15.24  15.24  16.21  16.21
         16.21  16.21  19.91  19.91  19.91  19.91  21.87  21.87  22.85  22.85
         22.85  22.85  28.00  28.00  28.00  28.00  29.25  29.25  37.66  37.66
         37.66  37.66  38.36  38.36  38.36  38.36  46.27  46.27  46.38  46.38
         49.30  49.30  49.30  49.30  66.82  66.82  71.20  71.20  71.20  71.20
         73.55  73.55  74.80  74.80  74.80  74.80  78.43  78.43  78.43  78.43
         80.07  80.07  81.87  81.87  81.87  81.87  82.23  82.23  88.04  88.04
         88.04  88.04  92.67  92.67  92.67  92.67
   3  1 -17.28 -17.28 -14.02 -14.02 -14.02 -14.02 -10.30 -10.30 -10.30 -10.30
         -9.86  -9.86  -8.28  -8.28  -8.28  -8.28  -5.25  -5.25  -3.18  -3.18
         -2.04  -2.04  -2.04  -2.04  -1.27  -1.27  -1.27  -1.27  -0.46  -0.46
         -0.46  -0.46   1.78   1.78   2.93   2.93   4.54   4.54   4.54   4.54
          7.31   7.31   7.31   7.31   7.83   7.83   7.83   7.83   9.73   9.73
         10.72  10.72  13.15  13.15  13.15  13.15  13.63  13.63  14.72  14.72
         14.72  14.72  14.99  14.99  15.24  15.24  15.24  15.24  16.21  16.21
         16.21  16.21  19.91  19.91  19.91  19.91  21.86  21.86  22.85  22.85
         22.85  22.85  27.99  27.99  27.99  27.99  29.25  29.25  37.66  37.66
         37.66  37.66  38.36  38.36  38.36  38.36  46.27  46.27  46.38  46.38
         49.30  49.30  49.30  49.30  66.82  66.82  71.21  71.21  71.21  71.21
         73.55  73.55  74.80  74.80  74.80  74.80  78.43  78.43  78.43  78.43
         80.07  80.07  81.87  81.87  81.87  81.87  82.23  82.23  88.04  88.04
         88.04  88.04  92.67  92.67  92.67  92.67
   3  2 -17.28 -17.28 -14.02 -14.02 -14.02 -14.02 -10.30 -10.30 -10.30 -10.30
         -9.86  -9.86  -8.28  -8.28  -8.28  -8.28  -5.25  -5.25  -3.18  -3.18
         -2.04  -2.04  -2.04  -2.04  -1.27  -1.27  -1.27  -1.27  -0.46  -0.46
         -0.46  -0.46   1.78   1.78   2.93   2.93   4.54   4.54   4.54   4.54
          7.31   7.31   7.31   7.31   7.83   7.83   7.83   7.83   9.73   9.73
         10.72  10.72  13.15  13.15  13.15  13.15  13.63  13.63  14.72  14.72
         14.72  14.72  14.99  14.99  15.24  15.24  15.24  15.24  16.21  16.21
         16.21  16.21  19.91  19.91  19.91  19.91  21.87  21.87  22.85  22.85
         22.85  22.85  28.00  28.00  28.00  28.00  29.25  29.25  37.66  37.66
         37.66  37.66  38.36  38.36  38.36  38.36  46.27  46.27  46.38  46.38
         49.30  49.30  49.30  49.30  66.82  66.82  71.20  71.20  71.20  71.20
         73.55  73.55  74.80  74.80  74.80  74.80  78.43  78.43  78.43  78.43
         80.07  80.07  81.87  81.87  81.87  81.87  82.23  82.23  88.04  88.04
         88.04  88.04  92.67  92.67  92.67  92.67
   4  1 -16.30 -16.30 -16.30 -16.30 -11.85 -11.85 -11.85 -11.85 -10.19 -10.19
        -10.19 -10.19  -7.71  -7.71  -7.71  -7.71  -3.89  -3.89  -3.89  -3.89
         -1.51  -1.51  -1.51  -1.51  -1.12  -1.12  -1.12  -1.12  -0.13  -0.13
         -0.13  -0.13   0.38   0.38   0.38   0.38   3.59   3.59   3.59   3.59
          7.08   7.08   7.08   7.08   8.58   8.58   8.58   8.58  11.52  11.52
         11.52  11.52  11.72  11.72  11.72  11.72  13.35  13.35  13.35  13.35
         13.60  13.60  13.60  13.60  14.52  14.52  14.52  14.52  16.42  16.42
         16.42  16.42  21.62  21.62  21.62  21.62  24.71  24.71  24.71  24.71
         26.37  26.37  26.37  26.37  28.45  28.45  28.45  28.45  32.39  32.39
         32.39  32.39  38.64  38.64  38.64  38.64  46.94  46.94  46.94  46.94
         48.33  48.33  48.33  48.33  68.84  68.84  68.84  68.84  73.08  73.08
         73.08  73.08  74.59  74.59  74.59  74.59  80.47  80.47  80.47  80.47
         81.49  81.49  81.49  81.49  84.68  84.68  84.68  84.68  86.70  86.70
         86.70  86.70  88.35  88.35  88.35  88.35
   4  2 -16.30 -16.30 -16.30 -16.30 -11.85 -11.85 -11.85 -11.85 -10.19 -10.19
        -10.19 -10.19  -7.71  -7.71  -7.71  -7.71  -3.89  -3.89  -3.89  -3.89
         -1.51  -1.51  -1.51  -1.51  -1.12  -1.12  -1.12  -1.12  -0.12  -0.12
         -0.12  -0.12   0.39   0.39   0.39   0.39   3.59   3.59   3.59   3.59
          7.08   7.08   7.08   7.08   8.59   8.59   8.59   8.59  11.52  11.52
         11.52  11.52  11.72  11.72  11.72  11.72  13.35  13.35  13.35  13.35
         13.60  13.60  13.60  13.60  14.52  14.52  14.52  14.52  16.42  16.42
         16.42  16.42  21.62  21.62  21.62  21.62  24.71  24.71  24.71  24.71
         26.37  26.37  26.37  26.37  28.45  28.45  28.45  28.45  32.39  32.39
         32.39  32.39  38.64  38.64  38.64  38.64  46.94  46.94  46.94  46.94
         48.33  48.33  48.33  48.33  68.84  68.84  68.84  68.84  73.08  73.08
         73.08  73.08  74.59  74.59  74.59  74.59  80.47  80.47  80.47  80.47
         81.49  81.49  81.49  81.49  84.68  84.68  84.68  84.68  86.70  86.70
         86.70  86.70  88.35  88.35  88.35  88.35
   5  1 -17.28 -17.28 -14.02 -14.02 -14.02 -14.02 -10.30 -10.30 -10.30 -10.30
         -9.86  -9.86  -8.28  -8.28  -8.28  -8.28  -5.25  -5.25  -3.18  -3.18
         -2.04  -2.04  -2.04  -2.04  -1.27  -1.27  -1.27  -1.27  -0.46  -0.46
         -0.46  -0.46   1.78   1.78   2.93   2.93   4.54   4.54   4.54   4.54
          7.31   7.31   7.31   7.31   7.83   7.83   7.83   7.83   9.73   9.73
         10.72  10.72  13.15  13.15  13.15  13.15  13.63  13.63  14.72  14.72
         14.72  14.72  14.99  14.99  15.24  15.24  15.24  15.24  16.21  16.21
         16.21  16.21  19.91  19.91  19.91  19.91  21.86  21.86  22.85  22.85
         22.85  22.85  27.99  27.99  27.99  27.99  29.25  29.25  37.66  37.66
         37.66  37.66  38.36  38.36  38.36  38.36  46.27  46.27  46.38  46.38
         49.30  49.30  49.30  49.30  66.82  66.82  71.21  71.21  71.21  71.21
         73.55  73.55  74.80  74.80  74.80  74.80  78.43  78.43  78.43  78.43
         80.07  80.07  81.87  81.87  81.87  81.87  82.23  82.23  88.04  88.04
         88.04  88.04  92.67  92.67  92.67  92.67
   5  2 -17.28 -17.28 -14.02 -14.02 -14.02 -14.02 -10.30 -10.30 -10.30 -10.30
         -9.86  -9.86  -8.28  -8.28  -8.28  -8.28  -5.25  -5.25  -3.18  -3.18
         -2.04  -2.04  -2.04  -2.04  -1.27  -1.27  -1.27  -1.27  -0.46  -0.46
         -0.46  -0.46   1.78   1.78   2.93   2.93   4.54   4.54   4.54   4.54
          7.31   7.31   7.31   7.31   7.83   7.83   7.83   7.83   9.73   9.73
         10.72  10.72  13.15  13.15  13.15  13.15  13.63  13.63  14.72  14.72
         14.72  14.72  14.99  14.99  15.24  15.24  15.24  15.24  16.21  16.21
         16.21  16.21  19.91  19.91  19.91  19.91  21.87  21.87  22.85  22.85
         22.85  22.85  28.00  28.00  28.00  28.00  29.25  29.25  37.66  37.66
         37.66  37.66  38.36  38.36  38.36  38.36  46.27  46.27  46.38  46.38
         49.30  49.30  49.30  49.30  66.82  66.82  71.20  71.20  71.20  71.20
         73.55  73.55  74.80  74.80  74.80  74.80  78.43  78.43  78.43  78.43
         80.07  80.07  81.87  81.87  81.87  81.87  82.23  82.23  88.04  88.04
         88.04  88.04  92.67  92.67  92.67  92.67
   6  1 -16.30 -16.30 -16.30 -16.30 -11.85 -11.85 -11.85 -11.85 -10.19 -10.19
        -10.19 -10.19  -7.71  -7.71  -7.71  -7.71  -3.89  -3.89  -3.89  -3.89
         -1.51  -1.51  -1.51  -1.51  -1.12  -1.12  -1.12  -1.12  -0.13  -0.13
         -0.13  -0.13   0.38   0.38   0.38   0.38   3.59   3.59   3.59   3.59
          7.08   7.08   7.08   7.08   8.58   8.58   8.58   8.58  11.52  11.52
         11.52  11.52  11.72  11.72  11.72  11.72  13.35  13.35  13.35  13.35
         13.60  13.60  13.60  13.60  14.52  14.52  14.52  14.52  16.42  16.42
         16.42  16.42  21.62  21.62  21.62  21.62  24.71  24.71  24.71  24.71
         26.37  26.37  26.37  26.37  28.45  28.45  28.45  28.45  32.39  32.39
         32.39  32.39  38.64  38.64  38.64  38.64  46.94  46.94  46.94  46.94
         48.33  48.33  48.33  48.33  68.84  68.84  68.84  68.84  73.08  73.08
         73.08  73.08  74.59  74.59  74.59  74.59  80.47  80.47  80.47  80.47
         81.49  81.49  81.49  81.49  84.68  84.68  84.68  84.68  86.70  86.70
         86.70  86.70  88.35  88.35  88.35  88.35
   6  2 -16.30 -16.30 -16.30 -16.30 -11.85 -11.85 -11.85 -11.85 -10.19 -10.19
        -10.19 -10.19  -7.71  -7.71  -7.71  -7.71  -3.89  -3.89  -3.89  -3.89
         -1.51  -1.51  -1.51  -1.51  -1.12  -1.12  -1.12  -1.12  -0.12  -0.12
         -0.12  -0.12   0.39   0.39   0.39   0.39   3.59   3.59   3.59   3.59
          7.08   7.08   7.08   7.08   8.59   8.59   8.59   8.59  11.52  11.52
         11.52  11.52  11.72  11.72  11.72  11.72  13.35  13.35  13.35  13.35
         13.60  13.60  13.60  13.60  14.52  14.52  14.52  14.52  16.42  16.42
         16.42  16.42  21.62  21.62  21.62  21.62  24.71  24.71  24.71  24.71
         26.37  26.37  26.37  26.37  28.45  28.45  28.45  28.45  32.39  32.39
         32.39  32.39  38.64  38.64  38.64  38.64  46.94  46.94  46.94  46.94
         48.33  48.33  48.33  48.33  68.84  68.84  68.84  68.84  73.08  73.08
         73.08  73.08  74.59  74.59  74.59  74.59  80.47  80.47  80.47  80.47
         81.49  81.49  81.49  81.49  84.68  84.68  84.68  84.68  86.70  86.70
         86.70  86.70  88.35  88.35  88.35  88.35
   7  1 -16.30 -16.30 -16.30 -16.30 -11.85 -11.85 -11.85 -11.85 -10.19 -10.19
        -10.19 -10.19  -7.71  -7.71  -7.71  -7.71  -3.89  -3.89  -3.89  -3.89
         -1.51  -1.51  -1.51  -1.51  -1.12  -1.12  -1.12  -1.12  -0.13  -0.13
         -0.13  -0.13   0.38   0.38   0.38   0.38   3.59   3.59   3.59   3.59
          7.08   7.08   7.08   7.08   8.58   8.58   8.58   8.58  11.52  11.52
         11.52  11.52  11.72  11.72  11.72  11.72  13.35  13.35  13.35  13.35
         13.60  13.60  13.60  13.60  14.52  14.52  14.52  14.52  16.42  16.42
         16.42  16.42  21.62  21.62  21.62  21.62  24.71  24.71  24.71  24.71
         26.37  26.37  26.37  26.37  28.45  28.45  28.45  28.45  32.39  32.39
         32.39  32.39  38.64  38.64  38.64  38.64  46.94  46.94  46.94  46.94
         48.33  48.33  48.33  48.33  68.84  68.84  68.84  68.84  73.08  73.08
         73.08  73.08  74.59  74.59  74.59  74.59  80.47  80.47  80.47  80.47
         81.49  81.49  81.49  81.49  84.68  84.68  84.68  84.68  86.70  86.70
         86.70  86.70  88.35  88.35  88.35  88.35
   7  2 -16.30 -16.30 -16.30 -16.30 -11.85 -11.85 -11.85 -11.85 -10.19 -10.19
        -10.19 -10.19  -7.71  -7.71  -7.71  -7.71  -3.89  -3.89  -3.89  -3.89
         -1.51  -1.51  -1.51  -1.51  -1.12  -1.12  -1.12  -1.12  -0.12  -0.12
         -0.12  -0.12   0.39   0.39   0.39   0.39   3.59   3.59   3.59   3.59
          7.08   7.08   7.08   7.08   8.59   8.59   8.59   8.59  11.52  11.52
         11.52  11.52  11.72  11.72  11.72  11.72  13.35  13.35  13.35  13.35
         13.60  13.60  13.60  13.60  14.52  14.52  14.52  14.52  16.42  16.42
         16.42  16.42  21.62  21.62  21.62  21.62  24.71  24.71  24.71  24.71
         26.37  26.37  26.37  26.37  28.45  28.45  28.45  28.45  32.39  32.39
         32.39  32.39  38.64  38.64  38.64  38.64  46.94  46.94  46.94  46.94
         48.33  48.33  48.33  48.33  68.84  68.84  68.84  68.84  73.08  73.08
         73.08  73.08  74.59  74.59  74.59  74.59  80.47  80.47  80.47  80.47
         81.49  81.49  81.49  81.49  84.68  84.68  84.68  84.68  86.70  86.70
         86.70  86.70  88.35  88.35  88.35  88.35
   8  1 -15.98 -15.98 -15.98 -15.98 -13.41 -13.41 -13.41 -13.41  -7.58  -7.58
         -7.58  -7.58  -7.58  -7.58  -7.58  -7.58  -4.83  -4.83  -4.83  -4.83
         -2.96  -2.96  -2.96  -2.96  -2.96  -2.96  -2.96  -2.96   2.15   2.15
          2.15   2.15   4.66   4.66   4.66   4.66   4.66   4.66   4.66   4.66
          5.61   5.61   5.61   5.61   5.61   5.61   5.61   5.61   5.97   5.97
          5.97   5.97   7.12   7.12   7.12   7.12  17.24  17.24  17.24  17.24
         17.24  17.24  17.24  17.24  18.21  18.21  18.21  18.21  19.33  19.33
         19.33  19.33  20.01  20.01  20.01  20.01  20.01  20.01  20.01  20.01
         29.63  29.63  29.63  29.63  29.63  29.63  29.63  29.63  30.67  30.67
         30.67  30.67  30.67  30.67  30.67  30.67  47.77  47.77  47.77  47.77
         51.00  51.00  51.00  51.00  69.55  69.55  69.55  69.55  73.23  73.23
         73.23  73.23  77.63  77.63  77.63  77.63  81.78  81.78  81.78  81.78
         81.78  81.78  81.78  81.78  85.65  85.65  85.65  85.65  88.61  88.61
         88.61  88.61  88.61  88.61  88.61  88.61
   8  2 -15.98 -15.98 -15.98 -15.98 -13.41 -13.41 -13.41 -13.41  -7.58  -7.58
         -7.58  -7.58  -7.58  -7.58  -7.58  -7.58  -4.83  -4.83  -4.83  -4.83
         -2.96  -2.96  -2.96  -2.96  -2.96  -2.96  -2.96  -2.96   2.15   2.15
          2.15   2.15   4.66   4.66   4.66   4.66   4.66   4.66   4.66   4.66
          5.61   5.61   5.61   5.61   5.61   5.61   5.61   5.61   5.97   5.97
          5.97   5.97   7.12   7.12   7.12   7.12  17.24  17.24  17.24  17.24
         17.24  17.24  17.24  17.24  18.21  18.21  18.21  18.21  19.33  19.33
         19.33  19.33  20.01  20.01  20.01  20.01  20.01  20.01  20.01  20.01
         29.63  29.63  29.63  29.63  29.63  29.63  29.63  29.63  30.67  30.67
         30.67  30.67  30.67  30.67  30.67  30.67  47.77  47.77  47.77  47.77
         51.00  51.00  51.00  51.00  69.55  69.55  69.55  69.55  73.23  73.23
         73.23  73.23  77.63  77.63  77.63  77.63  81.78  81.78  81.78  81.78
         81.78  81.78  81.78  81.78  85.65  85.65  85.65  85.65  88.61  88.61
         88.61  88.61  88.61  88.61  88.61  88.61
siesta: Fermi energy =      -5.986412 eV

siesta: Program's energy decomposition (eV):
siesta: Ebs     =      -365.743886
siesta: Eions   =      1494.146185
siesta: Ena     =       461.915468
siesta: Ekin    =       326.354965
siesta: Enl     =       109.116158
siesta: DEna    =         0.827010
siesta: DUscf   =         1.792072
siesta: DUext   =         0.000000
siesta: Exc     =      -259.259171
siesta: eta*DQ  =         0.000000
siesta: Emadel  =         0.000000
siesta: Emeta   =         0.000000
siesta: Emolmec =         0.000000
siesta: Ekinion =         0.000000
siesta: Eharris =      -853.445900
siesta: Etot    =      -853.399682
siesta: FreeEng =      -853.399684

siesta: Final energy (eV):
siesta:  Band Struct. =    -365.743886
siesta:       Kinetic =     326.354965
siesta:       Hartree =      55.322348
siesta:    Ext. field =       0.000000
siesta:   Exch.-corr. =    -259.259171
siesta:  Ion-electron =    -464.518504
siesta:       Ion-ion =    -511.299320
siesta:       Ekinion =       0.000000
siesta:         Total =    -853.399682

siesta: Stress tensor (static) (eV/Ang**3):
siesta:    -0.021859    0.000000   -0.000000
siesta:     0.000000   -0.021859    0.000000
siesta:    -0.000000    0.000000   -0.021859

siesta: Cell volume =        160.103007 Ang**3

siesta: Pressure (static):
siesta:                Solid            Molecule  Units
siesta:           0.00023807          0.00023807  Ry/Bohr**3
siesta:           0.02185894          0.02185923  eV/Ang**3
siesta:          35.02226660         35.02272172  kBar
(Free)E+ p_basis*V_orbitals  =        -820.441009
(Free)Eharris+ p_basis*V_orbitals  =        -820.473475

siesta: Total spin polarization (Qup-Qdown) =   -0.021508

* Maximum dynamic memory allocated : Node    0 =   364 MB

* Maximum memory occured during dfscf                         

timer: CPU execution times:
timer:  Routine       Calls   Time/call    Tot.time        %
timer:  siesta            1    1436.389    1436.389   100.00
timer:  Setup             1       0.152       0.152     0.01
timer:  bands             1       0.001       0.001     0.00
timer:  writewave         3       0.133       0.399     0.03
timer:  KSV_init          1       0.000       0.000     0.00
timer:  IterMD            1    1330.843    1330.843    92.65
timer:  hsparse           1       0.404       0.404     0.03
timer:  overlap           1       0.639       0.639     0.04
timer:  IterSCF           5     198.357     991.784    69.05
timer:  kinefsm           2       0.484       0.968     0.07
timer:  nlefsm            2       7.350      14.700     1.02
timer:  DHSCF             7     201.243    1408.699    98.07
timer:  DHSCF1            1       0.162       0.162     0.01
timer:  DHSCF2            1      18.025      18.025     1.25
timer:  REORD            69       0.000       0.022     0.00
timer:  POISON            8       0.012       0.097     0.01
timer:  DHSCF3            7     178.621    1250.350    87.05
timer:  rhoofd            7     107.542     752.795    52.41
timer:  cellXC            7       0.169       1.184     0.08
timer:  vmat              6      82.702     496.214    34.55
timer:  MolMec            2       0.000       0.000     0.00
timer:  diagon            5       1.851       9.253     0.64
timer:  c-eigval         80       0.028       2.225     0.15
timer:  c-buildHS        80       0.017       1.359     0.09
timer:  cdiag           168       0.021       3.515     0.24
timer:  cdiag1          168       0.001       0.214     0.01
timer:  cdiag2          168       0.004       0.707     0.05
timer:  cdiag3          168       0.015       2.535     0.18
timer:  cdiag4          168       0.000       0.049     0.00
timer:  c-eigvec         88       0.047       4.139     0.29
timer:  c-buildD         80       0.041       3.259     0.23
timer:  DHSCF4            1     140.152     140.152     9.76
timer:  dfscf             1     137.439     137.439     9.57
timer:  overfsm           1       0.316       0.316     0.02
timer:  optical           1       0.000       0.000     0.00
  

elaps: ELAPSED times:
elaps:  Routine       Calls   Time/call    Tot.time        %
elaps:  siesta            1    1436.257    1436.257   100.00
elaps:  Setup             1       0.201       0.201     0.01
elaps:  bands             1       0.001       0.001     0.00
elaps:  writewave         3       0.095       0.286     0.02
elaps:  KSV_init          1       0.000       0.000     0.00
elaps:  IterMD            1    1330.756    1330.756    92.65
elaps:  hsparse           1       0.405       0.405     0.03
elaps:  overlap           1       0.640       0.640     0.04
elaps:  IterSCF           5     198.317     991.584    69.04
elaps:  kinefsm           2       0.484       0.969     0.07
elaps:  nlefsm            2       7.351      14.702     1.02
elaps:  DHSCF             7     201.332    1409.321    98.12
elaps:  DHSCF1            1       0.162       0.162     0.01
elaps:  DHSCF2            1      18.054      18.054     1.26
elaps:  REORD            69       0.000       0.022     0.00
elaps:  POISON            8       0.012       0.097     0.01
elaps:  DHSCF3            7     178.699    1250.894    87.09
elaps:  rhoofd            7     107.581     753.069    52.43
elaps:  cellXC            7       0.169       1.185     0.08
elaps:  vmat              6      82.747     496.485    34.57
elaps:  MolMec            2       0.000       0.000     0.00
elaps:  diagon            5       1.712       8.559     0.60
elaps:  c-eigval         80       0.031       2.441     0.17
elaps:  c-buildHS        80       0.017       1.360     0.09
elaps:  cdiag           168       0.016       2.706     0.19
elaps:  cdiag1          168       0.003       0.533     0.04
elaps:  cdiag2          168       0.002       0.413     0.03
elaps:  cdiag3          168       0.010       1.722     0.12
elaps:  cdiag4          168       0.000       0.030     0.00
elaps:  c-eigvec         88       0.035       3.115     0.22
elaps:  c-buildD         80       0.041       3.260     0.23
elaps:  DHSCF4            1     140.200     140.200     9.76
elaps:  dfscf             1     137.486     137.486     9.57
elaps:  overfsm           1       0.316       0.316     0.02
elaps:  optical           1       0.000       0.000     0.00
  
>> End of run:  20-AUG-2012  10:50:51
